/*--------------------------------*- C++ -*----------------------------------*\
| =========                 |                                                 |
| \\      /  F ield         | OpenFOAM: The Open Source CFD Toolbox           |
|  \\    /   O peration     | Version:  2.2.x                                 |
|   \\  /    A nd           | Web:      www.OpenFOAM.org                      |
|    \\/     M anipulation  |                                                 |
\*---------------------------------------------------------------------------*/
FoamFile
{
    version     2.0;
    format      ascii;
    class       volScalarField;
    location    "2000";
    object      nut;
}
// * * * * * * * * * * * * * * * * * * * * * * * * * * * * * * * * * * * * * //

dimensions      [0 2 -1 0 0 0 0];

internalField   nonuniform List<scalar> 
5000
(
1.61802e-05
7.09091e-05
0.000238745
0.000497294
0.000692092
0.000794853
0.000839826
0.000856591
0.000861275
0.000861361
0.000860008
0.000858427
0.000857028
0.000855909
0.000855038
0.000854385
0.000853884
0.000853496
0.000853205
0.000852975
0.000852794
0.00085265
0.000852535
0.000852442
0.000852363
0.000852302
0.000852244
0.000852204
0.000852168
0.000852138
0.000852109
0.000852087
0.000852069
0.000852052
0.000852039
0.000852025
0.000852014
0.000852006
0.000851999
0.00085199
0.000851985
0.00085198
0.000851979
0.000851972
0.000851971
0.000851963
0.000851961
0.000851964
0.000851965
0.000851961
2.04098e-05
3.93072e-05
0.000119899
0.000302185
0.000510481
0.000675792
0.000778645
0.000832529
0.0008566
0.000865063
0.00086636
0.000864862
0.000862603
0.000860412
0.000858567
0.000857102
0.00085597
0.000855112
0.000854453
0.000853945
0.000853555
0.000853249
0.000853004
0.000852806
0.000852654
0.000852521
0.000852418
0.000852333
0.000852257
0.000852193
0.000852142
0.000852102
0.000852066
0.000852036
0.000852003
0.000851982
0.000851959
0.000851945
0.000851927
0.000851914
0.000851906
0.000851895
0.000851884
0.000851876
0.000851873
0.000851864
0.000851864
0.00085186
0.000851859
0.000851857
2.33927e-05
2.90936e-05
7.82051e-05
0.000207738
0.000386485
0.000563714
0.000700613
0.000788887
0.000837883
0.000861031
0.000869455
0.000870563
0.000868604
0.000865749
0.000862957
0.00086058
0.000858673
0.000857194
0.000856058
0.00085519
0.000854525
0.000854003
0.000853595
0.000853272
0.000853018
0.000852808
0.000852642
0.000852497
0.000852386
0.000852291
0.000852206
0.000852138
0.000852078
0.000852032
0.000851986
0.000851951
0.000851917
0.000851891
0.000851871
0.000851845
0.000851832
0.000851817
0.0008518
0.000851793
0.000851785
0.000851775
0.000851764
0.000851762
0.00085176
0.000851756
2.55353e-05
2.43248e-05
5.79531e-05
0.000154605
0.000303017
0.000471268
0.000621466
0.000733825
0.000806587
0.000847589
0.000867066
0.000873822
0.000874025
0.000871435
0.000868055
0.000864812
0.000862047
0.000859832
0.000858101
0.000856774
0.000855746
0.000854953
0.000854341
0.000853857
0.000853476
0.000853173
0.000852922
0.000852719
0.000852551
0.000852411
0.000852295
0.000852198
0.00085212
0.000852044
0.000851986
0.000851933
0.00085189
0.000851848
0.000851822
0.000851788
0.000851767
0.000851748
0.000851728
0.000851711
0.000851697
0.000851686
0.00085168
0.000851672
0.000851668
0.000851667
2.70423e-05
2.19243e-05
4.66669e-05
0.000122159
0.000245915
0.000398542
0.000549143
0.000674889
0.000766461
0.000825217
0.000858064
0.000873215
0.00087776
0.000876815
0.000873547
0.000869702
0.000866124
0.000863092
0.000860662
0.000858762
0.00085729
0.000856156
0.000855276
0.000854588
0.000854057
0.000853624
0.000853279
0.000852999
0.000852767
0.00085258
0.000852422
0.000852288
0.000852181
0.000852083
0.000852005
0.000851934
0.000851878
0.000851826
0.000851783
0.000851748
0.000851708
0.000851686
0.000851662
0.00085164
0.000851625
0.00085161
0.000851597
0.000851588
0.000851582
0.000851579
2.80184e-05
2.0686e-05
3.98924e-05
0.000101379
0.000206221
0.000342468
0.000486609
0.000617287
0.000721567
0.00079564
0.000842326
0.000867768
0.000878752
0.000881085
0.000878977
0.000875076
0.000870864
0.000867027
0.000863818
0.000861247
0.00085923
0.000857662
0.00085646
0.000855513
0.000854779
0.000854198
0.000853735
0.000853359
0.000853054
0.000852796
0.000852591
0.000852419
0.000852274
0.000852151
0.000852049
0.000851958
0.000851884
0.000851818
0.000851765
0.000851717
0.000851675
0.00085164
0.000851605
0.000851578
0.000851558
0.000851542
0.000851527
0.000851516
0.000851508
0.000851502
2.85318e-05
2.00608e-05
3.56469e-05
8.76539e-05
0.000178235
0.000299553
0.000434183
0.000563983
0.000675282
0.000761068
0.000820507
0.000857021
0.000876081
0.000883381
0.00088372
0.000880576
0.000876136
0.000871639
0.000867636
0.000864312
0.000861647
0.000859558
0.000857938
0.000856674
0.000855689
0.000854919
0.000854306
0.000853809
0.000853411
0.000853084
0.000852817
0.000852591
0.000852403
0.000852245
0.000852118
0.000852002
0.000851911
0.000851831
0.000851758
0.000851699
0.000851644
0.000851604
0.000851566
0.000851532
0.000851507
0.000851483
0.000851466
0.000851457
0.000851445
0.000851441
2.86429e-05
1.97779e-05
3.29531e-05
7.84387e-05
0.00015827
0.000266734
0.000390961
0.000516314
0.000630037
0.000723682
0.00079376
0.000841038
0.000869116
0.000882834
0.000887022
0.000885673
0.000881668
0.000876817
0.000872121
0.000868009
0.000864617
0.000861913
0.000859786
0.000858131
0.000856838
0.000855821
0.000855019
0.000854382
0.000853862
0.00085345
0.000853106
0.000852817
0.000852589
0.000852391
0.000852218
0.00085208
0.000851958
0.000851859
0.000851771
0.000851696
0.000851638
0.000851584
0.000851534
0.0008515
0.000851467
0.000851439
0.00085142
0.000851401
0.000851394
0.000851384
2.84206e-05
1.9703e-05
3.13072e-05
7.2276e-05
0.000143944
0.000241597
0.000355652
0.000474632
0.000587435
0.000685434
0.00076356
0.00082043
0.000857662
0.000878795
0.000888121
0.000889749
0.000887029
0.000882344
0.000877187
0.000872358
0.000868208
0.000864796
0.000862075
0.000859933
0.000858261
0.000856953
0.000855917
0.000855098
0.00085444
0.000853908
0.000853477
0.000853115
0.000852821
0.000852572
0.000852368
0.000852193
0.000852046
0.000851915
0.000851812
0.00085172
0.000851643
0.000851578
0.000851523
0.000851476
0.00085144
0.000851403
0.000851377
0.000851363
0.000851354
0.000851347
2.79325e-05
1.97839e-05
3.0481e-05
6.83715e-05
0.000133791
0.000222472
0.000327194
0.000439087
0.00054886
0.000648396
0.00073193
0.000796595
0.000842288
0.000871096
0.00088641
0.000892053
0.000891543
0.000887699
0.000882495
0.000877142
0.000872274
0.00086814
0.000864763
0.000862078
0.000859956
0.000858299
0.000856988
0.000855949
0.00085512
0.000854463
0.000853917
0.000853474
0.000853108
0.000852805
0.000852552
0.000852337
0.000852157
0.000852004
0.000851877
0.000851761
0.000851676
0.000851595
0.000851527
0.000851471
0.000851425
0.000851388
0.00085136
0.000851333
0.00085132
0.000851314
2.76196e-05
1.99302e-05
3.04073e-05
6.716e-05
0.00012976
0.000213993
0.000313633
0.000421099
0.000528196
0.000627402
0.000712939
0.000781375
0.000831758
0.000865278
0.000884629
0.000893236
0.000894558
0.000891581
0.000886536
0.000880914
0.000875567
0.000870904
0.000867025
0.000863894
0.000861411
0.000859459
0.000857912
0.000856697
0.000855725
0.000854943
0.000854317
0.000853798
0.00085337
0.000853018
0.000852726
0.000852474
0.000852263
0.000852086
0.000851943
0.000851815
0.000851704
0.000851614
0.000851538
0.00085147
0.000851419
0.000851377
0.000851344
0.000851315
0.000851306
0.000851297
2.72764e-05
2.00842e-05
3.04254e-05
6.62312e-05
0.000126502
0.000207089
0.000302528
0.000406199
0.000510773
0.000609261
0.000695971
0.000767159
0.000821274
0.000858802
0.000881815
0.000893324
0.000896622
0.000894733
0.000890081
0.000884387
0.000878707
0.000873597
0.000869259
0.000865722
0.000862887
0.000860647
0.000858876
0.000857474
0.000856361
0.000855457
0.000854735
0.000854143
0.000853658
0.000853249
0.000852913
0.00085263
0.00085239
0.000852191
0.000852023
0.000851873
0.00085175
0.00085165
0.000851559
0.000851489
0.000851426
0.00085138
0.000851342
0.000851314
0.000851299
0.000851287
2.69068e-05
2.02736e-05
3.05186e-05
6.53756e-05
0.000123387
0.000200502
0.000291924
0.000391883
0.000493824
0.000591278
0.00067871
0.000752179
0.000809659
0.000851018
0.000877724
0.000892336
0.000897896
0.000897403
0.000893409
0.000887823
0.000881924
0.000876419
0.000871651
0.000867691
0.000864485
0.000861939
0.000859919
0.000858318
0.000857044
0.000856021
0.000855193
0.000854524
0.00085397
0.000853508
0.000853128
0.000852809
0.000852539
0.000852309
0.000852116
0.00085195
0.000851819
0.000851699
0.000851603
0.000851515
0.000851449
0.000851395
0.000851353
0.000851317
0.000851302
0.000851288
2.65229e-05
2.05166e-05
3.07094e-05
6.46312e-05
0.000120464
0.000194271
0.000281848
0.000378163
0.000477375
0.000573519
0.000661274
0.000736593
0.000797068
0.000842043
0.000872421
0.000890283
0.000898363
0.000899561
0.000896484
0.000891214
0.000885214
0.000879391
0.000874204
0.000869825
0.000866233
0.000863357
0.000861066
0.000859246
0.000857797
0.000856637
0.000855707
0.000854944
0.000854317
0.000853797
0.000853371
0.000853008
0.0008527
0.000852448
0.000852227
0.000852051
0.000851897
0.000851762
0.000851649
0.00085156
0.000851475
0.000851422
0.000851369
0.000851334
0.00085131
0.0008513
2.61276e-05
2.08255e-05
3.10136e-05
6.40241e-05
0.000117775
0.000188455
0.000272373
0.000365144
0.000461567
0.000556174
0.000643887
0.000720629
0.000783719
0.000832044
0.00086599
0.000887164
0.00089796
0.000901106
0.000899208
0.000894467
0.00088853
0.000882471
0.000876906
0.000872113
0.000868125
0.0008649
0.000862314
0.00086026
0.00085862
0.000857313
0.000856256
0.000855396
0.000854696
0.000854114
0.000853629
0.000853228
0.000852887
0.000852605
0.000852361
0.000852159
0.000851982
0.000851832
0.000851709
0.000851607
0.00085152
0.000851451
0.000851398
0.000851362
0.00085133
0.000851316
2.57253e-05
2.12099e-05
3.14436e-05
6.35686e-05
0.000115337
0.000183081
0.00026354
0.000352887
0.000446507
0.000539392
0.000626744
0.00070451
0.000769818
0.000821187
0.000858535
0.000883016
0.000896656
0.000901964
0.000901482
0.000897489
0.000891784
0.000885608
0.000879726
0.000874532
0.000870155
0.000866563
0.000863671
0.000861362
0.000859519
0.000858046
0.00085686
0.000855894
0.000855111
0.000854458
0.000853922
0.000853468
0.000853092
0.000852769
0.000852502
0.000852274
0.00085208
0.000851916
0.000851777
0.000851668
0.000851566
0.000851494
0.00085143
0.000851392
0.000851363
0.000851346
2.53212e-05
2.16774e-05
3.20095e-05
6.32735e-05
0.000113159
0.000178153
0.000255356
0.000341425
0.000432258
0.000523291
0.000610006
0.000688437
0.000755577
0.000809658
0.000850192
0.000877902
0.000894453
0.000902083
0.000903238
0.000900215
0.000894909
0.000888739
0.000882623
0.000877065
0.000872295
0.00086834
0.000865124
0.000862542
0.000860482
0.000858835
0.000857504
0.000856431
0.000855547
0.000854827
0.00085423
0.000853726
0.000853308
0.000852957
0.000852657
0.000852404
0.000852193
0.00085201
0.000851859
0.000851733
0.000851627
0.000851545
0.000851475
0.000851424
0.000851398
0.000851383
2.49208e-05
2.22356e-05
3.27198e-05
6.31444e-05
0.000111239
0.000173666
0.000247819
0.000330765
0.00041886
0.000507952
0.000593809
0.000672576
0.00074119
0.000797641
0.000841111
0.000871926
0.000891385
0.000901454
0.000904427
0.00090256
0.000897839
0.000891817
0.00088555
0.000879689
0.000874548
0.000870218
0.000866677
0.00086381
0.000861512
0.000859671
0.000858191
0.000856992
0.000856022
0.00085522
0.000854554
0.000854005
0.000853543
0.000853147
0.000852826
0.000852548
0.000852309
0.000852112
0.000851946
0.000851807
0.000851693
0.000851595
0.000851524
0.000851477
0.000851437
0.000851417
2.45287e-05
2.28911e-05
3.3582e-05
6.31853e-05
0.000109575
0.000169604
0.00024091
0.000320899
0.000406333
0.000493433
0.000578251
0.000657076
0.000726826
0.000785317
0.000831447
0.000865198
0.000887518
0.00090009
0.000905009
0.000904485
0.00090052
0.000894782
0.000888472
0.000882366
0.000876888
0.000872199
0.000868313
0.000865151
0.000862604
0.000860564
0.000858924
0.000857594
0.000856514
0.000855638
0.000854904
0.000854296
0.000853786
0.000853357
0.000852998
0.000852696
0.000852435
0.000852219
0.000852042
0.000851886
0.000851757
0.000851654
0.000851577
0.000851522
0.000851479
0.000851465
2.41499e-05
2.36505e-05
3.46013e-05
6.33988e-05
0.000108161
0.000165951
0.000234603
0.000311809
0.000394672
0.000479764
0.000563408
0.000642052
0.000712631
0.000772847
0.000821361
0.000857847
0.000882938
0.000898019
0.000904987
0.000905942
0.000902904
0.000897601
0.000891353
0.00088507
0.000879287
0.000874257
0.000870027
0.000866567
0.000863768
0.00086151
0.000859695
0.000858231
0.000857045
0.000856071
0.000855266
0.0008546
0.000854042
0.000853576
0.000853186
0.000852849
0.000852571
0.000852336
0.000852138
0.000851975
0.000851833
0.000851725
0.000851641
0.000851574
0.000851537
0.000851508
2.3788e-05
2.45193e-05
3.57816e-05
6.37857e-05
0.000106991
0.000162688
0.000228872
0.000303463
0.000383867
0.000466961
0.000549332
0.000627597
0.000698736
0.000760377
0.000810995
0.000850002
0.00087773
0.000895298
0.00090437
0.000906923
0.000904942
0.000900208
0.000894141
0.000887766
0.000881737
0.000876377
0.000871825
0.000868048
0.000864978
0.000862505
0.000860505
0.000858896
0.000857591
0.000856525
0.000855647
0.000854919
0.000854313
0.000853803
0.000853378
0.000853018
0.000852713
0.000852454
0.00085224
0.00085206
0.000851914
0.000851795
0.000851695
0.00085163
0.000851584
0.000851561
2.34469e-05
2.55022e-05
3.71238e-05
6.43472e-05
0.000106059
0.000159797
0.000223685
0.000295832
0.000373892
0.000455023
0.000536057
0.000613782
0.000685246
0.000748039
0.000800489
0.000841785
0.000872003
0.000891982
0.000903185
0.000907421
0.000906621
0.000902579
0.000896805
0.000890426
0.000884196
0.000878548
0.000873669
0.000869591
0.000866248
0.00086354
0.000861353
0.000859589
0.000858161
0.000856991
0.000856039
0.000855246
0.000854587
0.000854032
0.000853572
0.000853187
0.000852857
0.000852579
0.000852344
0.000852151
0.000851991
0.000851862
0.00085176
0.000851688
0.000851637
0.000851609
2.31305e-05
2.66018e-05
3.86269e-05
6.50823e-05
0.000105359
0.00015726
0.000219015
0.000288879
0.00036472
0.000443942
0.000523602
0.00060066
0.000672247
0.000735944
0.000789968
0.000833327
0.000865862
0.000888162
0.000901465
0.000907444
0.000907915
0.000904683
0.000899304
0.00089301
0.000886648
0.000880747
0.000875566
0.000871187
0.000867563
0.00086462
0.000862236
0.000860309
0.000858752
0.00085748
0.00085644
0.000855581
0.000854872
0.000854271
0.000853776
0.000853353
0.000852995
0.0008527
0.000852449
0.000852243
0.000852069
0.000851935
0.000851827
0.000851745
0.000851693
0.000851664
2.28414e-05
2.78181e-05
4.02867e-05
6.59896e-05
0.000104887
0.000155061
0.000214834
0.000282571
0.000356322
0.000433699
0.000511974
0.000588266
0.000659806
0.000724183
0.000779543
0.000824741
0.0008594
0.000883907
0.000899279
0.000907004
0.000908827
0.000906497
0.00090162
0.00089549
0.000889062
0.000882951
0.000877491
0.000872814
0.00086892
0.000865731
0.000863146
0.000861053
0.000859363
0.000857986
0.000856856
0.000855928
0.000855158
0.000854517
0.000853981
0.000853525
0.000853146
0.000852827
0.000852556
0.000852332
0.00085215
0.000852005
0.000851891
0.000851801
0.000851744
0.000851716
2.25828e-05
2.91485e-05
4.2096e-05
6.70662e-05
0.000104638
0.000153187
0.000211116
0.000276877
0.000348665
0.000424277
0.000501171
0.000576629
0.000647983
0.000712845
0.000769316
0.000816127
0.000852733
0.000879306
0.000896673
0.000906149
0.000909357
0.000908017
0.00090372
0.000897845
0.000891417
0.000885145
0.000879432
0.000874479
0.000870309
0.000866876
0.000864081
0.000861816
0.000859987
0.000858496
0.000857281
0.000856275
0.00085545
0.000854758
0.000854183
0.000853699
0.000853295
0.000852952
0.000852665
0.000852424
0.000852228
0.000852072
0.000851951
0.00085186
0.000851799
0.000851765
2.23567e-05
3.05867e-05
4.40445e-05
6.83077e-05
0.000104607
0.000151626
0.000207842
0.00027177
0.00034172
0.000415652
0.000491189
0.000565764
0.000636815
0.000701997
0.000759374
0.000807591
0.000845949
0.00087445
0.000893717
0.000904914
0.000909531
0.000909227
0.000905599
0.000900051
0.000893688
0.000887302
0.000881375
0.000876156
0.000871726
0.00086805
0.000865038
0.000862599
0.000860622
0.000859013
0.000857711
0.000856632
0.000855748
0.000855007
0.000854387
0.000853875
0.00085344
0.000853074
0.000852772
0.000852519
0.000852308
0.000852143
0.00085201
0.000851911
0.000851847
0.000851818
2.21647e-05
3.2123e-05
4.61187e-05
6.97087e-05
0.000104791
0.00015037
0.000204994
0.000267224
0.000335463
0.000407803
0.000482018
0.000555686
0.000626342
0.000691692
0.000749795
0.00079922
0.000839145
0.000869412
0.00089048
0.00090334
0.000909373
0.000910147
0.000907239
0.000902092
0.000895861
0.000889409
0.000883297
0.000877839
0.000873149
0.000869235
0.000866015
0.0008634
0.000861271
0.000859546
0.000858139
0.00085699
0.000856037
0.000855251
0.000854592
0.000854049
0.000853583
0.000853198
0.000852876
0.000852606
0.000852387
0.000852206
0.000852067
0.000851965
0.000851897
0.000851864
2.20079e-05
3.37446e-05
4.83032e-05
7.12618e-05
0.000105187
0.000149412
0.000202561
0.000263222
0.00032987
0.00040071
0.000473652
0.000546398
0.000616586
0.00068198
0.000740647
0.000791095
0.000832406
0.000864285
0.000887032
0.00090149
0.000908907
0.000910784
0.000908647
0.000903952
0.00089791
0.000891439
0.000885184
0.000879511
0.00087459
0.000870428
0.000867002
0.000864201
0.000861928
0.000860084
0.00085858
0.000857349
0.000856332
0.000855498
0.0008548
0.000854219
0.000853727
0.000853315
0.000852972
0.00085269
0.000852458
0.000852268
0.000852122
0.000852018
0.000851946
0.000851908
2.1887e-05
3.54357e-05
5.058e-05
7.29588e-05
0.000105793
0.00014875
0.000200531
0.000259747
0.000324924
0.00039436
0.000466082
0.000537907
0.000607574
0.000672909
0.000731986
0.00078329
0.000825815
0.000859142
0.000883437
0.00089941
0.000908184
0.000911151
0.000909824
0.000905625
0.000899823
0.000893391
0.000887034
0.000881169
0.000876015
0.000871632
0.000867996
0.000865017
0.000862589
0.000860621
0.000859021
0.000857703
0.000856629
0.000855741
0.000855
0.000854381
0.000853864
0.000853434
0.000853073
0.000852773
0.000852527
0.000852332
0.000852175
0.000852059
0.000851984
0.000851946
2.1802e-05
3.71794e-05
5.29323e-05
7.47922e-05
0.000106607
0.000148385
0.000198905
0.000256796
0.000320616
0.000388741
0.000459301
0.000530219
0.000599327
0.000664512
0.000723874
0.00077587
0.000819438
0.000854061
0.000879778
0.000897169
0.000907231
0.000911282
0.000910771
0.000907118
0.000901594
0.000895244
0.00088881
0.00088278
0.000877427
0.000872834
0.000868994
0.00086583
0.000863255
0.000861163
0.000859452
0.000858066
0.000856923
0.000855975
0.000855196
0.000854545
0.000853999
0.00085354
0.000853163
0.000852848
0.000852594
0.000852385
0.000852222
0.000852098
0.000852019
0.000851983
2.17524e-05
3.89978e-05
5.5385e-05
7.67934e-05
0.000107666
0.000148347
0.000197703
0.00025437
0.000316935
0.000383832
0.000453281
0.000523302
0.000591813
0.000656768
0.000716295
0.000768849
0.00081331
0.000849073
0.000876083
0.000894788
0.00090609
0.0009112
0.000911513
0.000908425
0.000903229
0.000896997
0.000890529
0.000884369
0.000878819
0.00087402
0.000869987
0.00086665
0.000863917
0.000861696
0.000859891
0.000858419
0.000857209
0.000856213
0.00085539
0.000854708
0.000854131
0.000853656
0.000853253
0.000852921
0.000852654
0.000852441
0.000852267
0.000852136
0.000852061
0.000852014
2.17413e-05
4.08708e-05
5.79649e-05
7.89896e-05
0.000108991
0.000148647
0.000196921
0.000252451
0.000313839
0.000379576
0.000447954
0.000517083
0.000584967
0.00064962
0.000709212
0.000762192
0.000807406
0.000844186
0.000872371
0.000892305
0.00090478
0.000910927
0.000912066
0.000909572
0.000904728
0.000898651
0.000892186
0.000885912
0.000880195
0.000875204
0.000870977
0.000867468
0.000864589
0.000862241
0.00086033
0.000858778
0.000857495
0.000856451
0.000855581
0.00085486
0.000854259
0.000853755
0.000853339
0.000852995
0.00085271
0.00085248
0.000852302
0.000852175
0.000852085
0.000852046
2.17726e-05
4.26985e-05
6.05418e-05
8.13042e-05
0.000110525
0.000149219
0.000196477
0.000250944
0.000311234
0.000375872
0.000443222
0.000511472
0.000578708
0.000643007
0.000702577
0.000755875
0.000801728
0.000839399
0.000868648
0.000889729
0.000903324
0.000910473
0.000912434
0.00091055
0.000906099
0.000900213
0.000893768
0.000887416
0.000881556
0.000876382
0.000871971
0.00086829
0.00086526
0.000862784
0.000860768
0.000859127
0.000857782
0.000856679
0.00085577
0.000855007
0.000854381
0.000853855
0.000853418
0.000853058
0.000852765
0.000852526
0.000852336
0.000852203
0.000852111
0.000852067
2.18439e-05
4.44447e-05
6.31033e-05
8.36613e-05
0.000112148
0.000149954
0.000196273
0.000249756
0.000309016
0.00037262
0.000438983
0.000506373
0.000572948
0.000636852
0.00069633
0.000749859
0.00079624
0.0008347
0.000864921
0.000887065
0.000901726
0.000909849
0.000912632
0.000911368
0.00090734
0.000901672
0.000895288
0.000888882
0.00088289
0.000877553
0.000872962
0.00086911
0.000865929
0.000863333
0.000861208
0.000859481
0.00085807
0.000856908
0.000855956
0.000855162
0.000854504
0.00085395
0.000853493
0.000853122
0.00085281
0.000852562
0.000852371
0.000852225
0.000852136
0.000852087
2.19477e-05
4.60738e-05
6.56076e-05
8.60486e-05
0.00011385
0.000150794
0.00019621
0.000248755
0.000307045
0.000369662
0.000435081
0.000501633
0.000567547
0.000631026
0.000690365
0.000744054
0.000790887
0.000830051
0.000861159
0.000884299
0.000899976
0.000909051
0.000912652
0.000912022
0.000908438
0.00090302
0.000896734
0.000890301
0.000884194
0.000878708
0.000873949
0.000869936
0.000866609
0.000863875
0.000861652
0.000859831
0.000858352
0.000857132
0.000856136
0.000855305
0.000854617
0.00085404
0.000853569
0.000853175
0.000852855
0.000852602
0.000852396
0.000852253
0.00085215
0.000852103
2.20758e-05
4.7561e-05
6.80196e-05
8.84319e-05
0.000115602
0.000151711
0.000196253
0.000247903
0.000305267
0.000366947
0.00043146
0.000497197
0.000562454
0.000625493
0.000684651
0.00073844
0.000785658
0.000825441
0.000857371
0.000881443
0.000898085
0.000908088
0.000912498
0.000912525
0.000909397
0.000904265
0.000898104
0.000891667
0.000885473
0.000879847
0.000874934
0.000870759
0.000867282
0.000864423
0.000862091
0.000860187
0.000858636
0.000857362
0.000856313
0.000855449
0.000854725
0.000854131
0.000853634
0.000853229
0.000852895
0.000852627
0.00085242
0.000852265
0.000852164
0.000852118
2.22203e-05
4.88907e-05
7.03091e-05
9.07801e-05
0.000117377
0.000152679
0.000196372
0.000247161
0.000303643
0.000364428
0.000428071
0.000493021
0.000557626
0.000620214
0.00067916
0.000733005
0.000780536
0.000820882
0.000853556
0.000878506
0.000896076
0.000906969
0.000912183
0.000912862
0.000910221
0.000905403
0.000899392
0.000892976
0.000886722
0.000880969
0.000875901
0.000871576
0.000867955
0.000864976
0.000862529
0.000860536
0.000858913
0.000857582
0.000856489
0.000855583
0.000854839
0.000854215
0.000853704
0.000853276
0.000852934
0.000852652
0.00085244
0.000852277
0.000852172
0.000852122
2.23744e-05
5.00557e-05
7.24543e-05
9.30661e-05
0.000119152
0.000153676
0.000196542
0.000246498
0.000302134
0.000362065
0.000424874
0.000489058
0.000553026
0.000615156
0.000673866
0.000727723
0.000775518
0.000816359
0.000849721
0.000875492
0.000893939
0.000905709
0.000911712
0.000913058
0.000910917
0.00090643
0.0009006
0.000894234
0.000887932
0.000882071
0.000876868
0.000872392
0.000868632
0.000865522
0.000862973
0.000860892
0.000859192
0.000857801
0.00085666
0.000855716
0.000854937
0.000854296
0.000853759
0.00085332
0.000852964
0.000852676
0.000852453
0.000852289
0.000852176
0.000852122
2.25326e-05
5.10563e-05
7.4439e-05
9.52669e-05
0.000120906
0.000154681
0.000196738
0.000245888
0.000300712
0.000359822
0.000421831
0.000485274
0.000548616
0.000610283
0.000668739
0.000722573
0.000770587
0.000811874
0.000845871
0.000872409
0.000891698
0.000904309
0.000911091
0.000913103
0.00091148
0.000907349
0.000901722
0.000895437
0.000889104
0.000883157
0.000877819
0.000873208
0.000869307
0.000866073
0.000863417
0.000861241
0.00085947
0.000858021
0.000856832
0.000855851
0.000855041
0.000854372
0.000853819
0.000853362
0.000852988
0.000852691
0.000852461
0.000852289
0.00085218
0.000852121
2.26905e-05
5.18969e-05
7.62537e-05
9.73639e-05
0.00012262
0.000155679
0.000196943
0.000245303
0.000299341
0.000357666
0.000418905
0.000481632
0.000544361
0.000605566
0.000663754
0.000717538
0.000765733
0.000807416
0.000842001
0.000869262
0.000889356
0.000902782
0.000910336
0.00091301
0.000911919
0.000908163
0.000902765
0.000896573
0.000890235
0.000884213
0.000878763
0.000874016
0.000869988
0.000866623
0.000863859
0.000861596
0.000859748
0.000858236
0.000856999
0.000855974
0.00085514
0.000854441
0.000853869
0.0008534
0.000853017
0.000852705
0.000852469
0.000852289
0.000852171
0.00085212
2.28443e-05
5.25885e-05
7.78934e-05
9.93422e-05
0.000124277
0.000156654
0.000197138
0.000244725
0.000298
0.000355568
0.000416064
0.000478101
0.000540232
0.000600978
0.000658888
0.000712601
0.000760943
0.000802982
0.00083811
0.000866056
0.000886917
0.000901137
0.00090944
0.000912787
0.000912232
0.00090888
0.000903722
0.000897655
0.000891333
0.000885247
0.000879696
0.000874823
0.000870654
0.000867177
0.0008643
0.00086195
0.000860025
0.000858445
0.000857159
0.000856104
0.000855232
0.00085451
0.000853918
0.000853431
0.000853034
0.000852712
0.00085247
0.00085229
0.000852168
0.000852106
2.29925e-05
5.31412e-05
7.93581e-05
0.000101191
0.000125865
0.000157593
0.000197311
0.000244137
0.000296666
0.000353501
0.000413282
0.000474651
0.000536199
0.000596496
0.000654119
0.000707744
0.000756204
0.000798566
0.000834195
0.000862791
0.000884387
0.000899374
0.000908428
0.000912432
0.000912429
0.000909488
0.000904603
0.000898673
0.000892385
0.000886254
0.00088061
0.000875622
0.000871336
0.000867728
0.000864745
0.000862296
0.000860301
0.000858664
0.000857325
0.000856226
0.000855319
0.000854574
0.000853966
0.000853463
0.000853052
0.000852719
0.000852465
0.000852283
0.000852159
0.000852098
2.3132e-05
5.35672e-05
8.06509e-05
0.000102902
0.000127371
0.000158486
0.000197451
0.000243522
0.000295324
0.000351443
0.000410533
0.000471255
0.000532238
0.000592089
0.000649424
0.000702945
0.000751503
0.000794164
0.000830261
0.000859467
0.000881774
0.000897506
0.000907284
0.000911957
0.000912512
0.000909992
0.000905401
0.000899628
0.000893396
0.000887244
0.000881517
0.000876418
0.000872003
0.000868288
0.000865199
0.000862658
0.000860582
0.000858876
0.00085749
0.000856349
0.00085541
0.000854643
0.000854009
0.000853488
0.000853068
0.000852725
0.00085246
0.00085227
0.000852143
0.000852077
2.3262e-05
5.38826e-05
8.17762e-05
0.000104471
0.000128786
0.000159322
0.000197547
0.000242869
0.000293949
0.000349376
0.000407794
0.000467891
0.000528324
0.000587739
0.000644785
0.000698197
0.000746833
0.000789757
0.000826299
0.00085609
0.000879075
0.000895535
0.000906037
0.000911365
0.000912484
0.000910404
0.00090612
0.000900526
0.000894371
0.0008882
0.000882405
0.000877199
0.000872678
0.00086884
0.000865644
0.000863012
0.000860861
0.000859093
0.000857647
0.000856469
0.000855502
0.000854705
0.000854044
0.000853512
0.000853073
0.000852726
0.00085246
0.000852258
0.000852132
0.000852057
2.3381e-05
5.40985e-05
8.27449e-05
0.000105896
0.000130102
0.000160096
0.000197591
0.000242167
0.000292532
0.000347277
0.000405046
0.000464534
0.000524435
0.00058342
0.000640185
0.000693477
0.000742173
0.000785347
0.000822307
0.000852652
0.000876295
0.000893466
0.000904674
0.000910662
0.000912347
0.000910723
0.000906763
0.000901367
0.000895301
0.000889137
0.000883284
0.000877981
0.000873348
0.000869398
0.000866103
0.000863375
0.000861138
0.000859308
0.000857809
0.00085659
0.000855585
0.00085476
0.000854085
0.000853529
0.000853082
0.000852725
0.000852447
0.000852243
0.000852108
0.000852035
2.3488e-05
5.42305e-05
8.35618e-05
0.000107176
0.000131315
0.000160797
0.000197576
0.000241405
0.000291062
0.00034513
0.000402264
0.000461165
0.000520547
0.000579118
0.000635597
0.000688767
0.000737519
0.000780921
0.000818275
0.000849153
0.000873435
0.000891301
0.000903206
0.000909849
0.000912108
0.000910945
0.000907327
0.000902151
0.000896193
0.000890049
0.000884146
0.000878759
0.000874019
0.000869964
0.000866552
0.000863733
0.000861422
0.000859525
0.000857981
0.000856713
0.000855673
0.000854821
0.000854119
0.000853551
0.00085309
0.000852716
0.000852433
0.00085222
0.000852084
0.000852011
2.35814e-05
5.42901e-05
8.42388e-05
0.000108315
0.000132419
0.000161423
0.000197496
0.000240577
0.000289522
0.000342926
0.000399436
0.000457763
0.000516641
0.000574806
0.000631009
0.000684055
0.000732849
0.00077647
0.000814203
0.000845599
0.000870499
0.000889043
0.000901635
0.000908933
0.00091177
0.000911088
0.000907823
0.00090288
0.000897043
0.000890928
0.000884997
0.00087953
0.000874695
0.000870529
0.000867013
0.000864105
0.00086171
0.000859741
0.000858144
0.00085683
0.000855754
0.000854873
0.000854156
0.000853571
0.00085309
0.000852707
0.000852417
0.000852198
0.000852057
0.000851985
2.36609e-05
5.42899e-05
8.47883e-05
0.000109317
0.000133413
0.000161966
0.000197343
0.000239675
0.000287904
0.000340645
0.000396542
0.000454308
0.000512696
0.000570468
0.000626401
0.000679323
0.00072816
0.000771983
0.000810077
0.00084198
0.000867483
0.000886686
0.000899966
0.000907916
0.000911338
0.000911134
0.000908239
0.000903554
0.00089785
0.000891788
0.000885834
0.000880305
0.000875364
0.000871098
0.00086748
0.000864472
0.000861998
0.000859969
0.000858304
0.000856948
0.000855838
0.000854934
0.000854186
0.000853578
0.00085309
0.000852701
0.0008524
0.000852178
0.000852029
0.000851953
2.37241e-05
5.42417e-05
8.52193e-05
0.000110184
0.000134295
0.000162423
0.000197114
0.000238689
0.000286195
0.000338271
0.000393559
0.000450777
0.00050869
0.000566078
0.00062175
0.000674552
0.000723426
0.000767449
0.000805897
0.000838285
0.00086438
0.00088424
0.000898197
0.000906799
0.000910815
0.000911101
0.000908595
0.000904169
0.000898628
0.000892625
0.000886656
0.000881063
0.000876041
0.000871666
0.000867951
0.00086485
0.000862288
0.000860194
0.000858473
0.000857071
0.000855919
0.000854987
0.000854219
0.000853595
0.000853091
0.000852689
0.00085238
0.000852146
0.000851999
0.000851925
2.3768e-05