/*--------------------------------*- C++ -*----------------------------------*\
| =========                 |                                                 |
| \\      /  F ield         | OpenFOAM: The Open Source CFD Toolbox           |
|  \\    /   O peration     | Version:  2.2.x                                 |
|   \\  /    A nd           | Web:      www.OpenFOAM.org                      |
|    \\/     M anipulation  |                                                 |
\*---------------------------------------------------------------------------*/
FoamFile
{
    version     2.0;
    format      ascii;
    class       volScalarField;
    location    "2000";
    object      pa;
}
// * * * * * * * * * * * * * * * * * * * * * * * * * * * * * * * * * * * * * //

dimensions      [0 2 -2 0 0 0 0];

internalField   nonuniform List<scalar> 
5000
(
193.658
220.228
173.347
199.248
180.671
186.227
182.993
184.594
184.895
186.181
187.352
188.771
190.223
191.753
193.304
194.869
196.426
197.962
199.463
200.92
202.325
203.672
204.956
206.175
207.326
208.409
209.423
210.369
211.248
212.062
212.813
213.502
214.132
214.705
215.224
215.692
216.111
216.484
216.813
217.103
217.354
217.57
217.752
217.904
218.028
218.125
218.199
218.246
218.278
218.273
127.162
242.178
194.722
220.984
201.563
203.768
197.797
196.722
194.616
193.747
193.014
192.755
192.737
192.981
193.415
194.015
194.743
195.573
196.479
197.441
198.438
199.454
200.476
201.492
202.491
203.465
204.409
205.316
206.183
207.008
207.788
208.523
209.211
209.853
210.449
210.999
211.504
211.966
212.385
212.763
213.1
213.398
213.659
213.883
214.073
214.227
214.349
214.436
214.493
214.51
119.521
229.902
200.526
225.484
208.043
210.417
203.574
201.924
198.919
197.293
195.796
194.851
194.198
193.869
193.785
193.92
194.232
194.694
195.277
195.956
196.709
197.518
198.364
199.233
200.112
200.99
201.859
202.71
203.537
204.336
205.104
205.836
206.532
207.189
207.806
208.384
208.92
209.416
209.871
210.286
210.66
210.995
211.29
211.546
211.765
211.944
212.087
212.19
212.257
212.285
120.968
221.551
201.206
228.105
212.089
215.351
208.439
206.702
203.261
201.132
199.032
197.458
196.172
195.231
194.568
194.167
193.992
194.014
194.205
194.538
194.99
195.538
196.162
196.843
197.566
198.316
199.082
199.853
200.621
201.377
202.117
202.836
203.529
204.193
204.826
205.426
205.99
206.517
207.006
207.456
207.867
208.237
208.566
208.854
209.101
209.305
209.467
209.581
209.654
209.666
123.329
215.131
200.339
227.827
213.556
217.501
210.899
209.324
205.823
203.55
201.205
199.327
197.694
196.383
195.343
194.569
194.035
193.719
193.595
193.641
193.833
194.149
194.567
195.069
195.636
196.254
196.909
197.588
198.281
198.979
199.675
200.362
201.035
201.688
202.319
202.923
203.497
204.039
204.547
205.018
205.451
205.843
206.195
206.504
206.769
206.989
207.163
207.285
207.362
207.372
126.785
211.14
199.846
227.439
214.649
219.081
212.867
211.449
207.975
205.626
203.122
201.018
199.11
197.49
196.122
195.013
194.147
193.51
193.084
192.847
192.78
192.86
193.067
193.383
193.787
194.264
194.798
195.376
195.986
196.617
197.261
197.909
198.554
199.19
199.813
200.416
200.996
201.549
202.072
202.56
203.013
203.426
203.798
204.126
204.409
204.643
204.829
204.959
205.038
205.04
130.538
208.568
199.869
226.846
215.449
220.048
214.224
212.914
209.511
207.143
204.567
202.335
200.254
198.423
196.816
195.45
194.318
193.414
192.726
192.238
191.934
191.795
191.801
191.934
192.176
192.509
192.918
193.389
193.909
194.465
195.048
195.648
196.258
196.869
197.475
198.071
198.65
199.207
199.738
200.239
200.706
201.136
201.524
201.869
202.167
202.416
202.613
202.751
202.834
202.838
134.796
207.319
200.884
226.683
216.542
221.073
215.532
214.249
210.863
208.456
205.804
203.462
201.238
199.232
197.426
195.841
194.477
193.336
192.41
191.691
191.164
190.814
190.625
190.579
190.659
190.847
191.129
191.489
191.913
192.39
192.907
193.455
194.024
194.606
195.192
195.776
196.351
196.91
197.448
197.96
198.441
198.886
199.291
199.653
199.969
200.233
200.443
200.593
200.684
200.693
139.524
206.83
202.918
227.034
218.012
222.322
216.918
215.596
212.145
209.663
206.908
204.453
202.094
199.937
197.959
196.186
194.621
193.269
192.13
191.197
190.462
189.912
189.534
189.312
189.231
189.273
189.424
189.67
189.995
190.388
190.835
191.327
191.852
192.4
192.964
193.534
194.103
194.663
195.208
195.731
196.227
196.689
197.114
197.496
197.831
198.115
198.345
198.512
198.618
198.641
145.57
206.418
205.476
227.903
219.665
223.76
218.262
216.871
213.256
210.676
207.791
205.226
202.747
200.465
198.351
196.43
194.704
193.183
191.866
190.753
189.839
189.114
188.567
188.186
187.955
187.86
187.887
188.022
188.25
188.557
188.933
189.365
189.841
190.352
190.887
191.437
191.994
192.549
193.094
193.622
194.126
194.601
195.039
195.437
195.789
196.09
196.336
196.519
196.64
196.681
147.534
212.428
204.329
231.766
219.698
225.87
219.016
218.07
214.003
211.409
208.335
205.676
203.079
200.699
198.481
196.457
194.623
192.989
191.555
190.322
189.286
188.439
187.773
187.274
186.932
186.731
186.659
186.701
186.845
187.076
187.383
187.755
188.178
188.644
189.14
189.659
190.189
190.723
191.252
191.768
192.264
192.732
193.167
193.563
193.914
194.215
194.462
194.648
194.771
194.818
149.497
215.324
204.916
233.4
220.579
227.044
219.934
218.962
214.736
212.047
208.856
206.102
203.41
200.942
198.638
196.527
194.603
192.875
191.345
190.012
188.873
187.924
187.154
186.555
186.113
185.818
185.655
185.612
185.675
185.832
186.072
186.381
186.749
187.164
187.617
188.096
188.593
189.097
189.601
190.095
190.572
191.025
191.446
191.83
192.172
192.464
192.703
192.881
192.998
193.038
151.803
216.653
206.388
234.183
221.787
227.895
220.864
219.695
215.392
212.572
209.283
206.431
203.653
201.105
198.724
196.537
194.538
192.732
191.12
189.703
188.478
187.44
186.582
185.894
185.366
184.986
184.742
184.621
184.611
184.7
184.875
185.125
185.439
185.805
186.213
186.653
187.114
187.588
188.063
188.533
188.989
189.423
189.828
190.197
190.525
190.805
191.034
191.202
191.31
191.342
154.153
217.611
207.916
234.774
223.006
228.676
221.783
220.398
216.031
213.077
209.691
206.739
203.876
201.247
198.792
196.533
194.461
192.582
190.894
189.398
188.093
186.973
186.032
185.262
184.653
184.194
183.872
183.678
183.598
183.62
183.734
183.927
184.189
184.508
184.873
185.274
185.701
186.143
186.592
187.038
187.473
187.889
188.278
188.633
188.949
189.218
189.438
189.598
189.7
189.725
156.463
218.436
209.292
235.281
224.122
229.4
222.631
221.045
216.611
213.525
210.044
206.994
204.047
201.341
198.815
196.489
194.352
192.407
190.652
189.087
187.71
186.517
185.502
184.658
183.974
183.442
183.05
182.787
182.642
182.603
182.659
182.798
183.01
183.283
183.606
183.97
184.362
184.775
185.196
185.619
186.032
186.43
186.802
187.144
187.448
187.707
187.918
188.071
188.167
188.188
158.7
219.17
210.496
235.71
225.123
230.065
223.406
221.641
217.137
213.926
210.349
207.204
204.176
201.395
198.803
196.415
194.218
192.213
190.398
188.771
187.33
186.071
184.988
184.076
183.325
182.726
182.269
181.942
181.736
181.639
181.64
181.728
181.892
182.122
182.405
182.732
183.092
183.474
183.87
184.269
184.662
185.041
185.398
185.726
186.018
186.268
186.47
186.617
186.709
186.726
160.847
219.826
211.536
236.059
226.005
230.663
224.1
222.175
217.598
214.269
210.598
207.361
204.253
201.403
198.748
196.303
194.052
191.994
190.126
188.444
186.947
185.63
184.488
183.515
182.703
182.043
181.526
181.142
180.879
180.729
180.678
180.718
180.837
181.025
181.27
181.561
181.889
182.243
182.612
182.988
183.361
183.722
184.063
184.378
184.658
184.899
185.094
185.235
185.323
185.338
162.892
220.409
212.423
236.33
226.773
231.194
224.713
222.647
217.996
214.556
210.792
207.467
204.284
201.366
198.653
196.156
193.856
191.752
189.837
188.108
186.562
185.194
183.999
182.972
182.106
181.391
180.82
180.382
180.067
179.867
179.769
179.764
179.84
179.988
180.196
180.454
180.751
181.077
181.421
181.774
182.126
182.47
182.796
183.097
183.367
183.598
183.786
183.922
184.007
184.022
164.827
220.928
213.168
236.529
227.433
231.66
225.249
223.057
218.331
214.786
210.932
207.523
204.267
201.286
198.519
195.973
193.631
191.486
189.53
187.761
186.172
184.76
183.519
182.445
181.53
180.766
180.146
179.659
179.298
179.051
178.909
178.861
178.898
179.009
179.182
179.408
179.675
179.973
180.293
180.624
180.957
181.283
181.594
181.882
182.141
182.363
182.544
182.676
182.758
182.773
166.647
221.391
213.783
236.663
227.994
232.065
225.712
223.41
218.607
214.964
211.021
207.531
204.205
201.166
198.348
195.759
193.377
191.197
189.207
187.402
185.777
184.327
183.047
181.931
180.973
180.166
179.502
178.971
178.566
178.278
178.095
178.008
178.008
178.083
178.224
178.419
178.658
178.93
179.226
179.535
179.849
180.158
180.454
180.73
180.978
181.192
181.366
181.494
181.574
181.589
168.345
221.808
214.281
236.742
228.463
232.415
226.109
223.709
218.828
215.092
211.062
207.496
204.103
201.008
198.143
195.514
193.098
190.887
188.867
187.033
185.378
183.895
182.581
181.43
180.434
179.589
178.885
178.316
177.872
177.544
177.324
177.201
177.166
177.209
177.318
177.484
177.696
177.944
178.217
178.506
178.801
179.093
179.375
179.638
179.875
180.081
180.249
180.373
180.45
180.467
169.919
222.19
214.674
236.778
228.852
232.719
226.445
223.962
219
215.177
211.062
207.422
203.965
200.817
197.908
195.243
192.797
190.558
188.514
186.655
184.974
183.465
182.122
180.94
179.912
179.033
178.294
177.69
177.21
176.848
176.593
176.437
176.37
176.382
176.463
176.601
176.788
177.012
177.263
177.532
177.809
178.085
178.352
178.603
178.831
179.028
179.19
179.31
179.385
179.404
171.365
222.546
214.974
236.786
229.17
232.986
226.73
224.174
219.13
215.224
211.025
207.315
203.796
200.598
197.648
194.95
192.476
190.214
188.149
186.27
184.568
183.036
181.669
180.461
179.405
178.496
177.727
177.091
176.58
176.186
175.901
175.714
175.617
175.601
175.654
175.767
175.929
176.131
176.361
176.611
176.87
177.131
177.384
177.623
177.841
178.03
178.186
178.302
178.376
178.396
172.685
222.891
215.194
236.779
229.427
233.224
226.97
224.353
219.223
215.239
210.958
207.181
203.602
200.357
197.368
194.639
192.141
189.859
187.775
185.879
184.16
182.61
181.223
179.992
178.913
177.979
177.183
176.519
175.98
175.557
175.243
175.029
174.905
174.862
174.89
174.979
175.118
175.298
175.509
175.74
175.983
176.228
176.468
176.695
176.903
177.084
177.235
177.347
177.418
177.44
173.878
223.237
215.345
236.773
229.634
233.444
227.174
224.506
219.287
215.229
210.867
207.025
203.388
200.097
197.072
194.315
191.795
189.494
187.396
185.486
183.752
182.187
180.784
179.535
178.435
177.479
176.659
175.971
175.406
174.958
174.618
174.378
174.23
174.162
174.167
174.233
174.351
174.511
174.703
174.916
175.143
175.374
175.601
175.817
176.015
176.188
176.332
176.441
176.511
176.533
174.948
223.602
215.437
236.787
229.801
233.654
227.351
224.64
219.33
215.199
210.757
206.852
203.16
199.825
196.765
193.982
191.441
189.125
187.014
185.092
183.347
181.77
180.353
179.089
177.972
176.996
176.157
175.446
174.859
174.388
174.025
173.762
173.59
173.5
173.483
173.528
173.626
173.767
173.941
174.138
174.349
174.566
174.78
174.985
175.173
175.339
175.477
175.582
175.649
175.673
175.898
224.003
215.482
236.838
229.94
233.866
227.51
224.763
219.357
215.157
210.635
206.669
202.922
199.546
196.453
193.645
191.085
188.755
186.632
184.7
182.946
181.359
179.931
178.654
177.522
176.531
175.673
174.944
174.337
173.844
173.46
173.176
172.983
172.873
172.835
172.861
172.941
173.064
173.22
173.401
173.598
173.801
174.003
174.197
174.376
174.534
174.666
174.767
174.832
174.856
176.736
224.465
215.486
236.946
230.063
234.089
227.66
224.88
219.376
215.107
210.506
206.48
202.68
199.263
196.138
193.306
190.729
188.386
186.253
184.313
182.551
180.956
179.518
178.231
177.087
176.081
175.208
174.462
173.837
173.327
172.923
172.62
172.408
172.278
172.222
172.23
172.292
172.398
172.538
172.704
172.886
173.076
173.267
173.45
173.62
173.77
173.896
173.993
174.056
174.08
177.46
225.021
215.455
237.13
230.184
234.329
227.811
224.997
219.392
215.054
210.375
206.29
202.437
198.982
195.825
192.97
190.376
188.021
185.879
183.932
182.163
180.562
179.117
177.82
176.666
175.648
174.762
174.001
173.36
172.833
172.413
172.092
171.862
171.715
171.642
171.633
171.678
171.768
171.893
172.045
172.213
172.391
172.569
172.742
172.903
173.046
173.166
173.258
173.318
173.342
178.058
225.725
215.396
237.405
230.325
234.595
227.973
225.121
219.414
215.004
210.247
206.103
202.199
198.704
195.517
192.64
190.029
187.662
185.512
183.558
181.784
180.177
178.726
177.422
176.259
175.231
174.333
173.559
172.904
172.362
171.926
171.589
171.343
171.18
171.091
171.066
171.096
171.171
171.282
171.42
171.576
171.741
171.908
172.071
172.223
172.358
172.472
172.559
172.617
172.64
178.589
226.56
215.448
237.744
230.549
234.883
228.168
225.253
219.445
214.956
210.121
205.916
201.961
198.427
195.21
192.311
189.685
187.307
185.149
183.189
181.411
179.799
178.343
177.033
175.862
174.826
173.917
173.132
172.465
171.909
171.459
171.108
170.848
170.671
170.567
170.527
170.543
170.604
170.702
170.827
170.97
171.123
171.28
171.433
171.576
171.704
171.812
171.895
171.949
171.971
179.09
227.504
215.745
238.141
230.897
235.199
228.402
225.392
219.483
214.907
209.993
205.726
201.72
198.148
194.902
191.982
189.341
186.952
184.787
182.823
181.041
179.425
177.965
176.65
175.474
174.43
173.513
172.718
172.039
171.472
171.01
170.646
170.373
170.182
170.065
170.012
170.015
170.063
170.148
170.261
170.392
170.535
170.681
170.825
170.96
171.08
171.182
171.261
171.312
171.333
179.475
228.704
216.239
238.619
231.33
235.558
228.668
225.548
219.532
214.863
209.869
205.538
201.481
197.87
194.595
191.655
188.999
186.601
184.429
182.46
180.675
179.057
177.593
176.274
175.093
174.043
173.118
172.315
171.627
171.049
170.576
170.201
169.915
169.712
169.583
169.518
169.509
169.545
169.618
169.72
169.84
169.973
170.11
170.244
170.371
170.485
170.582
170.656
170.705
170.724
179.798
230.123
216.823
239.231
231.839
235.959
228.965
225.719
219.591
214.822
209.747
205.351
201.243
197.594
194.291
191.33
188.66
186.252
184.074
182.101
180.313
178.692
177.226
175.904
174.719
173.663
172.733
171.922
171.225
170.639
170.156
169.77
169.474
169.26
169.12
169.044
169.023
169.048
169.111
169.202
169.312
169.435
169.563
169.689
169.809
169.917
170.008
170.078
170.124
170.143
180.076
231.703
217.49
239.989
232.396
236.408
229.282
225.904
219.657
214.787
209.627
205.167
201.008
197.321
193.99
191.009
188.325
185.908
183.724
181.748
179.957
178.334
176.866
175.541
174.352
173.292
172.356
171.539
170.835
170.24
169.749
169.353
169.048
168.824
168.673
168.587
168.556
168.572
168.624
168.705
168.806
168.92
169.04
169.158
169.271
169.373
169.459
169.525
169.569
169.587
180.324
233.409
218.239
240.871
233.002
236.902
229.616
226.102
219.727
214.755
209.51
204.984
200.775
197.051
193.693
190.693
187.995
185.57
183.38
181.4
179.606
177.982
176.512
175.185
173.993
172.929
171.988
171.165
170.455
169.853
169.353
168.95
168.636
168.403
168.243
168.147
168.107
168.113
168.157
168.229
168.321
168.426
168.538
168.649
168.756
168.851
168.933
168.996
169.037
169.054
180.553
235.218
219.058
241.859
233.651
237.439
229.965
226.312
219.799
214.724
209.393
204.803
200.544
196.784
193.399
190.38
187.67
185.236
183.04
181.057
179.261
177.635
176.163
174.835
173.64
172.573
171.628
170.8
170.085
169.476
168.97
168.559
168.237
167.995
167.827
167.723
167.675
167.672
167.707
167.77
167.855
167.952
168.056
168.161
168.261
168.352
168.429
168.489
168.528
168.544
180.772
237.111
219.939
242.937
234.337
238.011
230.325
226.529
219.872
214.693
209.274
204.621
200.313
196.518
193.107
190.071
187.349
184.906
182.706
180.719
178.921
177.294
175.821
174.491
173.294
172.224
171.276
170.444
169.723
169.109
168.596
168.179
167.849
167.601
167.425
167.314
167.257
167.247
167.274
167.329
167.406
167.496
167.594
167.692
167.786
167.872
167.945
168.001
168.039
168.054
180.992
239.068
220.871
244.087
235.054
238.611
230.691
226.751
219.943
214.66
209.152
204.437
200.081
196.253
192.817
189.765
187.031
184.581
182.375
180.386
178.586
176.957
175.483
174.152
172.954
171.882
170.93
170.094
169.369
168.75
168.232
167.809
167.473
167.218
167.036
166.917
166.854
166.836
166.856
166.904
166.974
167.058
167.148
167.241
167.33
167.411
167.48
167.533
167.569
167.583
181.219
241.073
221.846
245.294
235.792
239.229
231.059
226.973
220.008
214.622
209.025
204.25
199.847
195.987
192.528
189.46
186.715
184.258
182.049
180.056
178.255
176.626
175.151
173.818
172.619
171.545
170.591
169.752
169.023
168.4
167.877
167.448
167.107
166.846
166.658
166.533
166.463
166.439
166.452
166.494
166.557
166.634
166.719
166.806
166.89
166.966
167.032
167.083
167.116
167.13
181.46
243.107
222.854
246.542
236.543
239.859
231.424
227.191
220.065
214.577
208.891
204.057
199.61
195.719
192.239
189.156
186.401
183.938
181.725
179.73
177.928
176.297
174.822
173.489
172.288
171.213
170.257
169.415
168.683
168.056
167.529
167.096
166.75
166.484
166.291
166.16
166.084
166.054
166.061
166.097
166.154
166.226
166.305
166.387
166.466
166.538
166.6
166.649
166.681
166.694
181.718
245.154
223.886
247.813
237.298
240.49
231.78
227.4
220.111
214.522
208.749
203.858
199.367
195.448
191.948
188.851
186.088
183.62
181.403
179.407
177.604
175.972
174.496
173.163
171.962
170.885
169.928
169.084
168.349
167.719
167.189
166.752
166.402
166.131
165.933
165.797
165.716
165.681
165.682
165.713
165.765
165.831
165.905
165.982
166.056
166.125
166.184
166.23
166.26
166.273
181.998
247.194
224.932
249.091
238.048
241.115
232.122
227.595
220.142
214.454
208.595
203.651
199.119
195.173
191.654
188.546
185.775
183.302
181.083
179.085
177.281
175.65
174.174
172.84
171.639
170.562
169.603
168.758
168.021
167.388
166.855
166.415
166.061
165.787
165.584
165.444
165.358
165.318
165.314
165.34
165.387
165.448
165.517
165.59
165.66
165.725
165.781
165.825
165.854
165.866
182.301
249.208
225.981
250.36
238.782
241.723
232.443
227.773
220.156
214.372
208.43
203.434
198.863
194.893
191.357
188.239
185.462
182.985
180.764
178.765
176.961
175.33
173.854
172.52
171.319
170.241
169.282
168.435
167.697
167.063
166.527
166.084
165.727
165.449
165.243
165.099
165.009
164.965
164.957
164.978
165.02
165.077
165.142
165.21
165.277
165.339
165.392
165.434
165.461
165.473
182.631
251.172
227.022
251.6
239.491
242.306
232.739
227.929
220.149
214.274
208.25
203.207
198.599
194.608
191.057
187.93
185.148
182.668
180.445
178.446
176.642
175.011
173.536
172.203
171.001
169.924
168.964
168.117
167.377
166.741
166.204
165.759
165.399
165.119
164.909
164.762
164.669
164.62
164.609
164.625
164.663
164.716
164.777
164.842
164.905
164.964
165.015
165.054
165.081
165.092
182.989
253.06
228.042
252.795
240.165
242.855
233.004
228.059
220.12
214.157
208.056
202.968
198.327
194.316
190.752
187.618
184.832
182.35
180.127
178.128
176.324
174.694
173.22
171.887
170.686
169.609
168.649
167.801
167.061
166.424
165.885
165.438
165.077
164.794
164.582
164.432
164.336
164.284
164.269
164.282
164.316
164.365
164.423
164.484
164.544
164.6
164.648
164.686
164.712
164.722
183.373
254.841
229.024
253.924
240.792
243.361
233.234
228.16
220.068
214.021
207.847
202.717
198.046
194.018
190.444
187.304
184.514
182.032
179.808
177.81
176.007
174.378
172.905
171.573
170.373
169.296
168.336
167.489
166.749
166.111
165.571
165.123
164.76
164.475
164.261
164.109
164.01
163.955
163.937
163.947
163.978
164.023
164.077
164.135
164.193
164.246
164.292
164.329
164.353
164.364
183.786
256.479
229.956
254.971
241.366
243.818
233.428
228.23
219.992
213.866
207.624
202.456
197.758
193.715
190.132
186.988
184.196
181.713
179.49
177.493
175.691
174.063
172.591
171.26
170.061
168.985
168.026
167.179
166.438
165.801
165.26
164.811
164.447
164.161
163.946
163.791
163.69
163.633
163.612
163.619
163.647
163.69
163.741
163.796
163.851
163.902
163.946
163.981
164.005
164.015
184.221
257.917
230.813
255.914
241.878
244.218
233.587
228.269
219.897
213.695
207.388
202.186
197.463
193.408
189.817
186.67
183.877
181.394
179.172
177.176
175.376
173.749
172.278
170.949
169.751
168.676
167.717
166.871
166.131
165.493
164.952
164.503
164.139
163.852
163.635
163.479
163.376
163.317
163.294
163.299
163.324
163.364
163.412
163.465
163.517
163.566
163.609
163.642
163.665
163.675
184.622
259.06
231.557
256.731
242.324
244.563
233.72
228.287
219.793
213.517
207.152
201.916
197.17
193.103
189.505
186.355
183.561
181.078
178.857
176.862
175.063
173.437
171.967
170.639
169.442
168.368
167.411
166.565
165.826
165.188
164.648
164.198
163.834
163.546
163.328
163.172
163.067
163.007
162.982
162.984
163.007
163.045
163.091
163.141
163.191
163.238
163.279
163.312
163.334
163.343
184.985
260.062
232.187
257.455
242.729
244.862
233.832
228.284
219.674
213.328
206.907
201.64
196.873
192.795
189.191
186.039
183.244
180.762
178.542
176.548
174.75
173.126
171.657
170.33
169.135
168.062
167.105
166.26
165.522
164.885
164.345
163.896
163.532
163.244
163.026
162.868
162.763
162.701
162.675
162.676
162.697
162.732
162.776
162.825
162.873
162.918
162.958
162.99
163.011
163.02
185.424
261.123
232.785
258.164
243.104
245.13
233.906
228.245
219.521
213.108
206.635
201.34
196.555
192.47
188.863
185.711
182.918
180.438
178.22
176.228
174.432
172.81
171.344
170.018
168.824
167.753
166.799
165.955
165.218
164.583
164.044
163.596
163.232
162.945
162.726
162.569
162.463
162.4
162.373
162.372
162.392
162.426
162.468
162.514
162.561
162.605
162.643
162.674
162.695
162.704
185.858
262.252
233.372
258.87
243.459
245.378
233.955
228.184
219.348
212.871
206.348
201.029
196.229
192.138
188.53
185.379
182.588
180.111
177.895
175.906
174.113
172.493
171.028
169.705
168.513
167.444
166.492
165.65
164.915
164.281
163.744
163.297
162.934
162.648
162.43
162.273
162.167
162.104
162.076
162.074
162.093
162.125
162.166
162.21
162.256
162.298
162.336
162.365
162.386
162.395
186.293
263.437
233.974
259.585
243.804
245.611
233.981
228.1
219.152
212.614
206.044
200.703
195.89
191.797
188.188
185.04
182.253
179.779
177.567
175.58
173.79
172.173
170.71
169.39
168.2
167.134
166.184
165.344
164.611
163.98
163.444
162.999
162.638
162.353
162.136
161.979
161.874
161.811
161.782
161.78
161.798
161.829
161.869
161.912
161.956
161.997
162.034
162.063
162.083
162.092
186.725
264.662
234.584
260.307
244.138
245.828
233.987
227.996
218.937
212.341
205.727
200.366
195.543
191.448
187.841
184.696
181.913
179.443
177.235
175.252
173.464
171.85
170.391
169.073
167.886
166.822
165.874
165.038
164.308
163.679
163.145
162.703
162.343
162.06
161.845
161.689
161.584
161.521
161.493
161.491
161.508
161.538
161.576
161.619
161.662
161.702
161.738
161.766
161.786
161.795
187.16
265.923
235.202
261.037
244.461
246.032
233.972
227.873
218.704
212.052
205.396
200.019
195.188
191.092
187.488
184.348
181.569
179.104
176.899
174.92
173.136
171.525
170.068
168.753
167.57
166.509
165.564
164.731
164.003
163.377
162.847
162.407
162.05
161.768
161.555
161.401
161.297
161.235
161.207
161.205
161.221
161.251
161.289
161.33
161.372
161.412
161.447
161.475
161.494
161.503
187.597
267.22
235.826
261.773
244.773
246.221
233.936
227.73
218.453
211.749
205.054
199.662
194.824
190.731
187.13
183.996
181.222
178.762
176.561
174.586
172.805
171.197
169.744
168.432
167.251
166.194
165.253
164.423
163.699
163.076
162.549
162.111
161.757
161.478
161.267
161.115
161.013
160.952
160.924
160.922
160.939
160.968
161.006
161.046
161.088
161.127
161.161
161.189
161.208
161.217
188.037
268.551
236.454
262.515
245.073
246.396
233.88
227.568
218.184
211.431
204.699
199.297
194.454
190.364
186.768
183.64
180.872
178.417
176.221
174.249
172.472
170.867
169.417
168.109
166.931
165.877
164.94
164.113
163.393
162.774
162.25
161.817
161.465
161.19
160.981
160.831
160.73
160.671
160.645
160.643
160.66
160.689
160.726
160.767
160.808
160.846
160.88
160.908
160.927
160.936
188.481
269.916
237.086
263.262
245.359
246.554
233.802
227.386
217.897
211.099
204.334
198.922
194.077
189.991
186.402
183.28
180.518
178.069
175.877
173.91
172.136
170.535
169.088
167.783
166.609
165.559
164.625
163.803
163.087
162.472
161.952
161.522
161.174
160.902
160.696
160.549
160.45
160.393
160.368
160.367
160.385
160.414
160.451
160.491
160.532
160.57
160.604
160.631
160.65
160.659
188.929
271.317
237.721
264.013
245.63
246.696
233.702
227.183
217.592
210.752
203.957
198.539
193.694
189.614
186.031
182.917
180.162
177.718
175.531
173.568
171.798
170.2
168.757
167.456
166.286
165.239
164.309
163.491
162.78
162.169
161.653
161.228
160.884
160.615
160.413
160.268
160.172
160.117
160.093
160.094
160.112
160.142
160.179
160.219
160.26
160.298
160.331
160.359
160.378
160.387
189.382
272.754
238.358
264.768
245.885
246.82
233.578
226.96
217.269
210.39
203.569
198.148
193.304
189.232
185.657
182.551
179.802
177.364
175.183
173.224
171.458
169.863
168.424
167.126
165.96
164.917
163.992
163.178
162.471
161.865
161.355
160.933
160.594
160.329
160.13
159.989
159.896
159.843
159.821
159.823
159.843
159.873
159.911
159.951
159.991
160.029
160.063
160.09
160.11
160.119
189.841
274.229
238.996
265.527
246.122
246.925
233.43
226.715
216.927
210.014
203.17
197.749
192.908
188.845
185.279
182.181
179.44
177.008
174.832
172.877
171.115
169.524
168.088
166.794
165.632
164.593
163.673
162.864
162.162
161.561
161.055
160.639
160.304
160.044
159.849
159.711
159.622
159.571
159.552
159.556
159.576
159.608
159.646
159.686
159.727
159.765
159.799
159.826
159.846
159.855
190.306
275.742
239.633
266.287
246.34
247.009
233.257
226.448
216.565
209.623
202.76
197.341
192.506
188.454
184.897
181.809
179.075
176.649
174.478
172.527
170.769
169.182
167.749
166.459
165.301
164.268
163.352
162.548
161.851
161.256
160.755
160.344
160.015
159.759
159.569
159.435
159.349
159.301
159.284
159.29
159.312
159.345
159.384
159.425
159.466
159.504
159.538
159.566
159.586
159.595
190.779
277.295
240.269
267.049
246.537
247.072
233.057
226.157
216.184
209.217
202.338
196.924
192.098
188.057
184.512
181.433
178.707
176.287
174.121
172.174
170.42
168.837
167.408
166.122
164.969
163.94
163.029
162.231
161.539
160.949
160.455
160.049
159.725
159.475
159.289
159.16
159.077
159.033
159.019
159.027
159.051
159.085
159.125
159.167
159.208
159.247
159.281
159.31
159.33
159.339
191.259
278.89
240.902
267.813
246.71
247.11
232.829
225.842
215.783
208.796
201.905
196.5
191.684
187.656
184.122
181.053
178.335
175.922
173.761
171.819
170.068
168.489
167.064
165.782
164.633
163.61
162.704
161.912
161.226
160.642
160.154
159.754
159.436
159.191
159.01
158.885
158.807
158.767
158.756
158.767
158.793
158.828
158.869
158.912
158.954
158.993
159.028
159.057
159.077
159.088
191.747
280.529
241.53
268.577
246.859
247.124
232.573
225.501
215.362
208.358
201.461
196.067
191.263
187.25
183.728
180.67
177.96
175.553
173.397
171.46
169.713
168.138
166.717
165.44
164.296
163.277
162.377
161.591
160.912
160.334
159.852
159.459
159.146
158.907
158.732
158.612
158.539
158.502
158.495
158.508
158.537
158.574
158.617
158.66
158.703
158.743
158.779
158.808
158.829
158.84
192.242
282.217
242.147
269.341
246.98
247.108
232.287
225.133
214.921
207.904
201.006
195.625
190.836
186.839
183.33
180.282
177.581
175.181
173.03
171.098
169.355
167.783
166.367
165.094
163.955
162.942
162.048
161.268
160.595
160.025
159.549
159.163
158.857
158.624
158.455
158.34
158.272
158.239
158.236
158.252
158.283
158.323
158.367
158.412
158.456
158.497
158.533
158.563
158.585
158.596
192.743
283.961
242.748
270.106
247.073
247.062
231.972
224.737
214.458
207.434
200.539
195.175
190.403
186.422
182.927
179.891
177.198
174.805
172.66
170.731
168.993
167.426
166.014
164.746
163.612
162.604
161.717
160.943
160.278
159.714
159.246
158.866
158.568
158.341
158.178
158.07
158.006
157.979
157.979
157.999
158.033
158.075
158.121
158.167
158.212
158.254
158.291
158.322
158.345
158.356
193.241
285.779
243.319
270.867
247.137
246.979
231.626
224.312
213.975
206.947
200.06
194.716
189.963
186.001
182.52
179.495
176.811
174.425
172.285
170.362
168.627
167.064
165.657
164.394
163.265
162.264
161.383
160.617
159.958
159.402
158.942
158.57
158.278
158.059
157.903
157.8
157.742
157.72
157.724
157.748
157.785
157.83
157.878
157.926
157.972
158.015
158.053
158.085
158.108
158.12
193.717
287.725
243.857
271.619
247.178
246.855
231.25
223.854
213.47
206.442
199.569
194.248
189.516
185.573
182.107
179.094
176.419
174.04
171.906
169.987
168.257
166.698
165.296
164.038
162.916
161.921
161.047
160.288
159.637
159.089
158.636
158.272
157.989
157.777
157.628
157.532
157.48
157.462
157.472
157.5
157.54
157.587
157.638
157.688
157.736
157.78
157.819
157.852
157.876
157.889
194.232
289.617
244.523
272.269
247.244
246.665
230.853
223.358
212.943
205.916
199.064
193.766
189.058
185.135
181.686
178.685
176.02
173.648
171.519
169.605
167.88
166.326
164.929
163.677
162.561
161.573
160.706
159.955
159.312
158.773
158.329
157.973
157.698
157.494
157.353
157.264
157.218
157.207
157.221
157.253
157.298
157.348
157.401
157.453
157.503
157.549
157.589
157.624
157.649
157.662
194.829
291.343
245.363
272.813
247.326
246.408
230.426
222.82
212.387
205.365
198.539
193.269
188.587
184.686
181.253
178.266
175.61
173.246
171.123
169.214
167.494
165.946
164.554
163.308
162.199
161.218
160.36
159.617
158.983
158.453
158.018
157.672
157.406
157.21
157.077
156.996
156.957
156.952
156.971
157.009
157.057
157.112
157.167
157.222
157.274
157.321
157.364
157.399
157.426
157.44
195.435
293.134
246.19
273.369
247.345
246.116
229.94
222.244
211.794
204.788
197.991
192.754
188.1
184.222
180.807
177.834
175.189
172.832
170.716
168.813
167.099
165.556
164.17
162.931
161.829
160.857
160.007
159.273
158.65
158.129
157.704
157.368
157.111
156.925
156.8
156.727
156.696
156.698
156.724
156.766
156.819
156.878
156.937
156.994
157.048
157.098
157.142
157.179
157.207
157.222
196.05
295.026
246.974
273.941
247.289
245.787
229.389
221.63
211.16
204.185
197.421
192.222
187.597
183.746
180.349
177.39
174.756
172.408
170.299
168.402
166.694
165.157
163.778
162.546
161.452
160.489
159.648
158.925
158.311
157.801
157.387
157.062
156.815
156.639
156.524
156.459
156.436
156.445
156.478
156.526