/*--------------------------------*- C++ -*----------------------------------*\
| =========                 |                                                 |
| \\      /  F ield         | OpenFOAM: The Open Source CFD Toolbox           |
|  \\    /   O peration     | Version:  2.2.x                                 |
|   \\  /    A nd           | Web:      www.OpenFOAM.org                      |
|    \\/     M anipulation  |                                                 |
\*---------------------------------------------------------------------------*/
FoamFile
{
    version     2.0;
    format      ascii;
    class       surfaceScalarField;
    location    "2000";
    object      phi;
}
// * * * * * * * * * * * * * * * * * * * * * * * * * * * * * * * * * * * * * //

dimensions      [0 3 -1 0 0 0 0];

internalField   nonuniform List<scalar> 
9850
(
1.7043e-07
1.63029e-06
3.13546e-07
1.68326e-06
4.18557e-07
1.74739e-06
4.77362e-07
1.81998e-06
5.11974e-07
1.87094e-06
5.32688e-07
1.91198e-06
5.44419e-07
1.9485e-06
5.5002e-07
1.98256e-06
5.51348e-07
2.01516e-06
5.49635e-07
2.04692e-06
5.45708e-07
2.07827e-06
5.40129e-07
2.10948e-06
5.33283e-07
2.14072e-06
5.25439e-07
2.17212e-06
5.16788e-07
2.20376e-06
5.07468e-07
2.2357e-06
4.97577e-07
2.26799e-06
4.87191e-07
2.30065e-06
4.76366e-07
2.33372e-06
4.65145e-07
2.36721e-06
4.5356e-07
2.40114e-06
4.41638e-07
2.43551e-06
4.294e-07
2.47036e-06
4.16861e-07
2.50568e-06
4.04034e-07
2.54148e-06
3.9093e-07
2.57779e-06
3.77556e-07
2.61459e-06
3.63918e-07
2.65192e-06
3.50023e-07
2.68976e-06
3.35872e-07
2.72814e-06
3.2147e-07
2.76705e-06
3.06818e-07
2.80652e-06
2.91918e-07
2.84654e-06
2.76769e-07
2.88713e-06
2.61373e-07
2.92829e-06
2.45729e-07
2.97004e-06
2.29837e-07
3.01237e-06
2.13696e-07
3.05531e-06
1.97304e-07
3.09886e-06
1.80661e-07
3.14303e-06
1.63764e-07
3.18782e-06
1.46613e-07
3.23325e-06
1.29205e-07
3.27932e-06
1.11539e-07
3.32605e-06
9.36122e-08
3.37344e-06
7.54231e-08
3.42151e-06
5.69693e-08
3.47026e-06
3.82491e-08
3.5197e-06
1.92594e-08
3.56985e-06
3.6207e-06
1.16843e-07
1.51345e-06
2.1088e-07
1.58922e-06
2.90742e-07
1.66752e-06
3.53478e-07
1.75724e-06
4.00542e-07
1.82388e-06
4.35007e-07
1.87752e-06
4.59812e-07
1.9237e-06
4.77156e-07
1.96521e-06
4.88659e-07
2.00365e-06
4.95559e-07
2.04002e-06
4.98832e-07
2.075e-06
4.99239e-07
2.10907e-06
4.97374e-07
2.14258e-06
4.93693e-07
2.1758e-06
4.88543e-07
2.20891e-06
4.8219e-07
2.24205e-06
4.74836e-07
2.27534e-06
4.66636e-07
2.30885e-06
4.5771e-07
2.34265e-06
4.4815e-07
2.37677e-06
4.38029e-07
2.41126e-06
4.27406e-07
2.44614e-06
4.16326e-07
2.48144e-06
4.04827e-07
2.51718e-06
3.92939e-07
2.55337e-06
3.80685e-07
2.59004e-06
3.68086e-07
2.62719e-06
3.55158e-07
2.66484e-06
3.41915e-07
2.703e-06
3.28367e-07
2.74168e-06
3.14524e-07
2.78089e-06
3.00392e-07
2.82065e-06
2.85978e-07
2.86095e-06
2.71287e-07
2.90182e-06
2.56322e-07
2.94326e-06
2.41086e-07
2.98527e-06
2.25583e-07
3.02788e-06
2.09813e-07
3.07108e-06
1.93777e-07
3.1149e-06
1.77478e-07
3.15933e-06
1.60915e-07
3.20438e-06
1.44089e-07
3.25007e-06
1.26999e-07
3.29641e-06
1.09647e-07
3.3434e-06
9.20311e-08
3.39106e-06
7.41519e-08
3.43939e-06
5.60093e-08
3.4884e-06
3.76031e-08
3.53811e-06
1.89338e-08
3.58852e-06
3.63964e-06
9.76491e-08
1.4158e-06
1.7697e-07
1.5099e-06
2.39317e-07
1.60518e-06
2.92267e-07
1.70429e-06
3.36223e-07
1.77992e-06
3.71699e-07
1.84204e-06
3.99856e-07
1.89554e-06
4.21762e-07
1.94331e-06
4.38302e-07
1.98711e-06
4.50244e-07
2.02808e-06
4.58277e-07
2.06697e-06
4.63017e-07
2.10433e-06
4.65006e-07
2.14059e-06
4.64707e-07
2.1761e-06
4.62506e-07
2.21111e-06
4.58719e-07
2.24584e-06
4.536e-07
2.28046e-06
4.47352e-07
2.3151e-06
4.4014e-07
2.34986e-06
4.32091e-07
2.38482e-06
4.23311e-07
2.42004e-06
4.13882e-07
2.45557e-06
4.03872e-07
2.49145e-06
3.93336e-07
2.52771e-06
3.82319e-07
2.56439e-06
3.70857e-07
2.6015e-06
3.58982e-07
2.63907e-06
3.46718e-07
2.67711e-06
3.34087e-07
2.71563e-06
3.21105e-07
2.75466e-06
3.07788e-07
2.79421e-06
2.94148e-07
2.83429e-06
2.80195e-07
2.87491e-06
2.65937e-07
2.91608e-06
2.51382e-07
2.95781e-06
2.36536e-07
3.00012e-06
2.21404e-07
3.04301e-06
2.0599e-07
3.0865e-06
1.90298e-07
3.13059e-06
1.74331e-07
3.17529e-06
1.58091e-07
3.22062e-06
1.41581e-07
3.26658e-06
1.24803e-07
3.31319e-06
1.07758e-07
3.36045e-06
9.04492e-08
3.40837e-06
7.28772e-08
3.45696e-06
5.50441e-08
3.50624e-06
3.69519e-08
3.5562e-06
1.8603e-08
3.60687e-06
3.65824e-06
8.97191e-08
1.32608e-06
1.5552e-07
1.4441e-06
2.08643e-07
1.55205e-06
2.54937e-07
1.658e-06
2.94377e-07
1.74048e-06
3.27583e-07
1.80884e-06
3.55339e-07
1.86778e-06
3.78243e-07
1.9204e-06
3.96755e-07
1.9686e-06
4.11276e-07
2.01356e-06
4.22191e-07
2.05605e-06
4.29885e-07
2.09664e-06
4.34743e-07
2.13574e-06
4.37135e-07
2.1737e-06
4.37402e-07
2.21084e-06
4.35847e-07
2.24739e-06
4.32732e-07
2.28357e-06
4.28278e-07
2.31955e-06
4.22669e-07
2.35547e-06
4.16057e-07
2.39143e-06
4.08565e-07
2.42753e-06
4.00297e-07
2.46384e-06
3.91335e-07
2.50041e-06
3.81749e-07
2.5373e-06
3.71597e-07
2.57454e-06
3.60925e-07
2.61217e-06
3.49774e-07
2.65022e-06
3.38177e-07
2.6887e-06
3.26162e-07
2.72765e-06
3.13752e-07
2.76707e-06
3.00968e-07
2.807e-06
2.87825e-07
2.84743e-06
2.74339e-07
2.88839e-06
2.60521e-07
2.92989e-06
2.46383e-07
2.97195e-06
2.31933e-07
3.01457e-06
2.17178e-07
3.05777e-06
2.02126e-07
3.10155e-06
1.86783e-07
3.14593e-06
1.71153e-07
3.19092e-06
1.55241e-07
3.23653e-06
1.39052e-07
3.28277e-06
1.22589e-07
3.32965e-06
1.05856e-07
3.37718e-06
8.8857e-08
3.42537e-06
7.1595e-08
3.47422e-06
5.4074e-08
3.52376e-06
3.62979e-08
3.57398e-06
1.82712e-08
3.62489e-06
3.67651e-06
8.1619e-08
1.24446e-06
1.38342e-07
1.38738e-06
1.84541e-07
1.50586e-06
2.25597e-07
1.61694e-06
2.61075e-07
1.705e-06
2.91631e-07
1.77828e-06
3.17955e-07
1.84146e-06
3.40495e-07
1.89786e-06
3.5954e-07
1.94956e-06
3.75298e-07
1.9978e-06
3.87953e-07
2.0434e-06
3.97697e-07
2.08689e-06
4.04752e-07
2.12868e-06
4.09359e-07
2.1691e-06
4.11774e-07
2.20843e-06
4.12248e-07
2.24692e-06
4.11019e-07
2.2848e-06
4.083e-07
2.32227e-06
4.04277e-07
2.35949e-06
3.9911e-07
2.3966e-06
3.92935e-07
2.4337e-06
3.85867e-07
2.4709e-06
3.78001e-07
2.50828e-06
3.69417e-07
2.54588e-06
3.60183e-07
2.58378e-06
3.50356e-07
2.622e-06
3.39983e-07
2.66059e-06
3.29105e-07
2.69958e-06
3.17756e-07
2.739e-06
3.05965e-07
2.77887e-06
2.93757e-07
2.8192e-06
2.81155e-07
2.86003e-06
2.68175e-07
2.90137e-06
2.54835e-07
2.94323e-06
2.41147e-07
2.98564e-06
2.27125e-07
3.02859e-06
2.12777e-07
3.07211e-06
1.98114e-07
3.11621e-06
1.83144e-07
3.1609e-06
1.67874e-07
3.20619e-06
1.5231e-07
3.2521e-06
1.36459e-07
3.29862e-06
1.20327e-07
3.34578e-06
1.0392e-07
3.39359e-06
8.72418e-08
3.44205e-06
7.02991e-08
3.49117e-06
5.30972e-08
3.54096e-06
3.56421e-08
3.59143e-06
1.79403e-08
3.64259e-06
3.69445e-06
7.39569e-08
1.17051e-06
1.23687e-07
1.33765e-06
1.63796e-07
1.46575e-06
1.99727e-07
1.58101e-06
2.31245e-07
1.67348e-06
2.58968e-07
1.75056e-06
2.83433e-07
1.81699e-06
3.04982e-07
1.87632e-06
3.23811e-07
1.93073e-06
3.40028e-07
1.98159e-06
3.53695e-07
2.02973e-06
3.64872e-07
2.07571e-06
3.73641e-07
2.11991e-06
3.8012e-07
2.16262e-06
3.84462e-07
2.20408e-06
3.86845e-07
2.24454e-06
3.87455e-07
2.28419e-06
3.86477e-07
2.32325e-06
3.84084e-07
2.36188e-06
3.80434e-07
2.40025e-06
3.75664e-07
2.43847e-06
3.69893e-07
2.47667e-06
3.63226e-07
2.51494e-06
3.55749e-07
2.55336e-06
3.47538e-07
2.59199e-06
3.38657e-07
2.63088e-06
3.2916e-07
2.67009e-06
3.19096e-07
2.70965e-06
3.08503e-07
2.74959e-06
2.97417e-07
2.78995e-06
2.85868e-07
2.83075e-06
2.73881e-07
2.87202e-06
2.61479e-07
2.91377e-06
2.48681e-07
2.95603e-06
2.35505e-07
2.99881e-06
2.21966e-07
3.04213e-06
2.08077e-07
3.086e-06
1.9385e-07
3.13044e-06
1.79296e-07
3.17546e-06
1.64424e-07
3.22106e-06
1.49244e-07
3.26728e-06
1.33762e-07
3.31411e-06
1.17988e-07
3.36156e-06
1.01929e-07
3.40965e-06
8.55913e-08
3.45838e-06
6.89832e-08
3.50777e-06
5.21118e-08
3.55783e-06
3.49849e-08
3.60856e-06
1.76111e-08
3.65997e-06
3.71206e-06
6.72505e-08
1.10326e-06
1.11233e-07
1.29366e-06
1.45659e-07
1.43132e-06
1.76351e-07
1.55032e-06
2.03646e-07
1.64619e-06
2.28178e-07
1.72603e-06
2.5035e-07
1.79482e-06
2.70397e-07
1.85627e-06
2.88439e-07
1.91269e-06
3.04514e-07
1.96551e-06
3.18608e-07
2.01564e-06
3.30689e-07
2.06363e-06
3.40738e-07
2.10986e-06
3.48762e-07
2.15459e-06
3.54813e-07
2.19803e-06
3.5898e-07
2.24037e-06
3.61384e-07
2.28179e-06
3.62164e-07
2.32247e-06
3.61462e-07
2.36258e-06
3.59419e-07
2.40229e-06
3.56166e-07
2.44173e-06
3.51819e-07
2.48102e-06
3.46484e-07
2.52028e-06
3.40252e-07
2.55959e-06
3.33202e-07
2.59904e-06
3.25404e-07
2.63868e-06
3.16918e-07
2.67857e-06
3.07796e-07
2.71877e-06
2.98083e-07
2.7593e-06
2.87819e-07
2.80022e-06
2.77038e-07
2.84153e-06
2.65771e-07
2.88329e-06
2.54044e-07
2.9255e-06
2.4188e-07
2.9682e-06
2.293e-07
3.01139e-06
2.16323e-07
3.05511e-06
2.02965e-07
3.09936e-06
1.8924e-07
3.14416e-06
1.75161e-07
3.18953e-06
1.60742e-07
3.23548e-06
1.45992e-07
3.28203e-06
1.30923e-07
3.32917e-06
1.15544e-07
3.37694e-06
9.98648e-08
3.42533e-06
8.38941e-08
3.47435e-06
6.76413e-08
3.52403e-06
5.11157e-08
3.57436e-06
3.43267e-08
3.62535e-06
1.72846e-08
3.67701e-06
3.72935e-06
6.14617e-08
1.04179e-06
1.00634e-07
1.25449e-06
1.29771e-07
1.40218e-06
1.55258e-07
1.52483e-06
1.78148e-07
1.6233e-06
1.99157e-07
1.70502e-06
2.18615e-07
1.77536e-06
2.36678e-07
1.83821e-06
2.53402e-07
1.89596e-06
2.68776e-07
1.95014e-06
2.82736e-07
2.00168e-06
2.95191e-07
2.05118e-06
3.0605e-07
2.09901e-06
3.15235e-07
2.14541e-06
3.22707e-07
2.19056e-06
3.28468e-07
2.23461e-06
3.32562e-07
2.2777e-06
3.35066e-07
2.31997e-06
3.36079e-07
2.36157e-06
3.35712e-07
2.40266e-06
3.34074e-07
2.44336e-06
3.31273e-07
2.48382e-06
3.27408e-07
2.52414e-06
3.22567e-07
2.56443e-06
3.16831e-07
2.60477e-06
3.1027e-07
2.64524e-06
3.02946e-07
2.6859e-06
2.94917e-07
2.7268e-06
2.86229e-07
2.76799e-06
2.76927e-07
2.80952e-06
2.67048e-07
2.85141e-06
2.56627e-07
2.89371e-06
2.45694e-07
2.93643e-06
2.34276e-07
2.97961e-06
2.22397e-07
3.02327e-06
2.10078e-07
3.06743e-06
1.9734e-07
3.1121e-06
1.84198e-07
3.15731e-06
1.70671e-07
3.20306e-06
1.56771e-07
3.24938e-06
1.42513e-07
3.29628e-06
1.27909e-07
3.34378e-06
1.12972e-07
3.39188e-06
9.77118e-08
3.44059e-06
8.21404e-08
3.48993e-06
6.62686e-08
3.5399e-06
5.01072e-08
3.59052e-06
3.36676e-08
3.64179e-06
1.69613e-08
3.69372e-06
3.74631e-06
5.63413e-08
9.85453e-07
9.13773e-08
1.21946e-06
1.15646e-07
1.37792e-06
1.36142e-07
1.50434e-06
1.54665e-07
1.60478e-06
1.72023e-07
1.68766e-06
1.88507e-07
1.75888e-06
2.04226e-07
1.82249e-06
2.19199e-07
1.88099e-06
2.3338e-07
1.93596e-06
2.4668e-07
1.98838e-06
2.58979e-07
2.03888e-06
2.7014e-07
2.08784e-06
2.80034e-07
2.13551e-06
2.8855e-07
2.18204e-06
2.95614e-07
2.22754e-06
3.01194e-07
2.27212e-06
3.053e-07
2.31586e-06
3.07975e-07
2.3589e-06
3.09286e-07
2.40135e-06
3.09312e-07
2.44334e-06
3.0814e-07
2.48499e-06
3.05852e-07
2.52643e-06
3.02529e-07
2.56776e-06
2.98246e-07
2.60906e-06
2.93069e-07
2.65042e-06
2.87061e-07
2.69191e-06
2.80277e-07
2.73358e-06
2.72767e-07
2.7755e-06
2.64576e-07
2.81771e-06
2.55744e-07
2.86024e-06
2.46309e-07
2.90314e-06
2.36303e-07
2.94644e-06
2.25756e-07
2.99016e-06
2.14695e-07
3.03433e-06
2.03145e-07
3.07898e-06
1.91128e-07
3.12412e-06
1.78664e-07
3.16977e-06
1.65772e-07
3.21595e-06
1.5247e-07
3.26269e-06
1.38773e-07
3.30998e-06
1.24696e-07
3.35785e-06
1.10254e-07
3.40632e-06
9.54585e-08
3.45538e-06
8.03237e-08
3.50506e-06
6.48619e-08
3.55536e-06
4.90857e-08
3.60629e-06
3.30078e-08
3.65787e-06
1.66415e-08
3.71008e-06
3.76295e-06
5.13228e-08
9.3413e-07
8.13964e-08
1.18938e-06
1.01655e-07
1.35766e-06
1.17712e-07
1.48828e-06
1.32304e-07
1.59019e-06
1.46193e-07
1.67377e-06
1.59701e-07
1.74537e-06
1.72931e-07
1.80926e-06
1.85891e-07
1.86803e-06
1.98534e-07
1.92331e-06
2.10764e-07
1.97615e-06
2.22455e-07
2.02719e-06
2.33457e-07
2.07684e-06
2.43612e-07
2.12536e-06
2.52767e-07
2.17289e-06
2.60795e-07
2.21952e-06
2.67597e-07
2.26531e-06
2.73119e-07
2.31034e-06
2.77343e-07
2.35467e-06
2.80282e-07
2.39841e-06
2.81976e-07
2.44164e-06
2.82477e-07
2.48449e-06
2.81845e-07
2.52706e-06
2.80144e-07
2.56946e-06
2.77434e-07
2.61177e-06
2.73776e-07
2.65408e-06
2.69225e-07
2.69646e-06
2.63834e-07
2.73897e-06
2.5765e-07
2.78169e-06
2.50717e-07
2.82464e-06
2.43078e-07
2.86788e-06
2.34769e-07
2.91145e-06
2.25825e-07
2.95538e-06
2.16279e-07
2.99971e-06
2.06159e-07
3.04445e-06
1.95492e-07
3.08964e-06
1.84303e-07
3.1353e-06
1.72616e-07
3.18146e-06
1.60451e-07
3.22812e-06
1.47828e-07
3.27531e-06
1.34766e-07
3.32304e-06
1.2128e-07
3.37134e-06
1.07389e-07
3.42021e-06
9.31056e-08
3.46967e-06
7.8446e-08
3.51972e-06
6.3424e-08
3.57038e-06
4.80537e-08
3.62166e-06
3.23494e-08
3.67357e-06
1.63263e-08
3.72611e-06
3.77928e-06
2.29605e-08
9.11169e-07
3.76738e-08
1.17467e-06
4.58401e-08
1.34949e-06
5.19923e-08
1.48213e-06
5.74651e-08
1.58471e-06
6.27934e-08
1.66844e-06
6.81484e-08
1.74002e-06
7.35864e-08
1.80382e-06
7.91186e-08
1.86249e-06
8.47261e-08
1.91771e-06
9.03661e-08
1.97051e-06
9.59751e-08
2.02158e-06
1.01471e-07
2.07135e-06
1.06761e-07
2.12007e-06
1.11745e-07
2.16791e-06
1.16326e-07
2.21494e-06
1.20419e-07
2.26122e-06
1.23961e-07
2.3068e-06
1.26906e-07
2.35173e-06
1.29235e-07
2.39608e-06
1.30942e-07
2.43994e-06
1.32037e-07
2.4834e-06
1.32538e-07
2.52656e-06
1.32468e-07
2.56953e-06
1.31852e-07
2.61238e-06
1.30716e-07
2.65521e-06
1.29086e-07
2.69809e-06
1.26986e-07
2.74107e-06
1.2444e-07
2.78423e-06
1.2147e-07
2.82761e-06
1.18098e-07
2.87126e-06
1.14344e-07
2.91521e-06
1.10226e-07
2.9595e-06
1.05764e-07
3.00417e-06
1.00975e-07
3.04924e-06
9.58741e-08
3.09474e-06
9.04786e-08
3.1407e-06
8.48031e-08
3.18713e-06
7.88622e-08
3.23406e-06
7.267e-08
3.2815e-06
6.62403e-08
3.32947e-06
5.95867e-08
3.37799e-06
5.27228e-08
3.42707e-06
4.56621e-08
3.47673e-06
3.84186e-08
3.52696e-06
3.10067e-08
3.57779e-06
2.34415e-08
3.62923e-06
1.57394e-08
3.68127e-06
7.91872e-09
3.73393e-06
3.7872e-06
2.26472e-08
8.88522e-07
3.64662e-08
1.16085e-06
4.33647e-08
1.34259e-06
4.80456e-08
1.47745e-06
5.1982e-08
1.58078e-06
5.57601e-08
1.66466e-06
5.95606e-08
1.73622e-06
6.34554e-08
1.79992e-06
6.74712e-08
1.85848e-06
7.1606e-08
1.91357e-06
7.58371e-08
1.96628e-06
8.01221e-08
2.01729e-06
8.44014e-08
2.06707e-06
8.86006e-08
2.11587e-06
9.26356e-08
2.16387e-06
9.64199e-08
2.21115e-06
9.9872e-08
2.25777e-06
1.02923e-07
2.30375e-06
1.05521e-07
2.34913e-06
1.07634e-07
2.39396e-06
1.09246e-07
2.43832e-06
1.10355e-07
2.48229e-06
1.10967e-07
2.52595e-06
1.11098e-07
2.5694e-06
1.10764e-07
2.61272e-06
1.09983e-07
2.65599e-06
1.08774e-07
2.69929e-06
1.07156e-07
2.74269e-06
1.05148e-07
2.78624e-06
1.02766e-07
2.82999e-06
1.00028e-07
2.87399e-06
9.69511e-08
2.91828e-06
9.35504e-08
2.9629e-06
8.98415e-08
3.00788e-06
8.58392e-08
3.05324e-06
8.15581e-08
3.09903e-06
7.70122e-08
3.14525e-06
7.22151e-08
3.19193e-06
6.71804e-08
3.23909e-06
6.19211e-08
3.28676e-06
5.64506e-08
3.33494e-06
5.07818e-08
3.38366e-06
4.49283e-08
3.43293e-06
3.89034e-08
3.48275e-06
3.27213e-08
3.53315e-06
2.63966e-08
3.58412e-06
1.99447e-08
3.63568e-06
1.33824e-08
3.68783e-06
6.72738e-09
3.74058e-06
3.79392e-06
2.40821e-08
8.6444e-07
3.92047e-08
1.14573e-06
4.6844e-08
1.33495e-06
5.17321e-08
1.47256e-06
5.55762e-08
1.57693e-06
5.90891e-08
1.66115e-06
6.25185e-08
1.73279e-06
6.59778e-08
1.79646e-06
6.95205e-08
1.85494e-06
7.31671e-08
1.90992e-06
7.69125e-08
1.96253e-06
8.07311e-08
2.01348e-06
8.4578e-08
2.06322e-06
8.83919e-08
2.11206e-06
9.2099e-08
2.16016e-06
9.5618e-08
2.20763e-06
9.88688e-08
2.25452e-06
1.01779e-07
2.30084e-06
1.04289e-07
2.34662e-06
1.06359e-07
2.39189e-06
1.07964e-07
2.43672e-06
1.09094e-07
2.48116e-06
1.0975e-07
2.52529e-06
1.0994e-07
2.56921e-06
1.09678e-07
2.61298e-06
1.08979e-07
2.65669e-06
1.07859e-07
2.70042e-06
1.06333e-07
2.74422e-06
1.04419e-07
2.78815e-06
1.02132e-07
2.83228e-06
9.94871e-08
2.87664e-06
9.64999e-08
2.92127e-06
9.3185e-08
2.96622e-06
8.95567e-08
3.01151e-06
8.5629e-08
3.05717e-06
8.14158e-08
3.10324e-06
7.69306e-08
3.14973e-06
7.21867e-08
3.19667e-06
6.71973e-08
3.24408e-06
6.19755e-08
3.29198e-06
5.65344e-08
3.34039e-06
5.08873e-08
3.38931e-06
4.50475e-08
3.43877e-06
3.90286e-08
3.48877e-06
3.28448e-08
3.53933e-06
2.65109e-08
3.59045e-06
2.00424e-08
3.64215e-06
1.34558e-08
3.69442e-06
6.76844e-09
3.74727e-06
3.80069e-06
2.46928e-08
8.39747e-07
4.07666e-08
1.12965e-06
4.92056e-08
1.32651e-06
5.45005e-08
1.46726e-06
5.84686e-08
1.57296e-06
6.19071e-08
1.65771e-06
6.51232e-08
1.72957e-06
6.82735e-08
1.79331e-06
7.14429e-08
1.85177e-06
7.46757e-08
1.90669e-06
7.79875e-08
1.95922e-06
8.13705e-08
2.01009e-06
8.47963e-08
2.05979e-06
8.82186e-08
2.10863e-06
9.15759e-08
2.15681e-06
9.47967e-08
2.20441e-06
9.78055e-08
2.25151e-06
1.0053e-07
2.29811e-06
1.02909e-07
2.34424e-06
1.04893e-07
2.38991e-06
1.06451e-07
2.43516e-06
1.07566e-07
2.48005e-06
1.08233e-07
2.52463e-06
1.08455e-07
2.56898e-06
1.08241e-07
2.61319e-06
1.07602e-07
2.65733e-06
1.06553e-07
2.70146e-06
1.05107e-07
2.74566e-06
1.03277e-07
2.78998e-06
1.01079e-07
2.83448e-06
9.85255e-08
2.87919e-06
9.56301e-08
2.92417e-06
9.24063e-08
2.96944e-06
8.88671e-08
3.01505e-06
8.50256e-08
3.06101e-06
8.08946e-08
3.10737e-06
7.64871e-08
3.15414e-06
7.18157e-08
3.20134e-06
6.68932e-08
3.24901e-06
6.17324e-08
3.29714e-06
5.63459e-08
3.34577e-06
5.0747e-08
3.39491e-06
4.49487e-08
3.44457e-06
3.89648e-08
3.49475e-06
3.28092e-08
3.54548e-06
2.64966e-08
3.59677e-06
2.00425e-08
3.6486e-06
1.34632e-08
3.701e-06
6.77596e-09
3.75396e-06
3.80747e-06
2.48377e-08
8.1491e-07
4.15723e-08
1.11292e-06
5.07338e-08
1.31735e-06
5.64438e-08
1.46155e-06
6.06095e-08
1.5688e-06
6.4076e-08
1.65424e-06
6.71913e-08
1.72646e-06
7.01424e-08
1.79036e-06
7.30383e-08
1.84887e-06
7.5944e-08
1.90379e-06
7.88931e-08
1.95627e-06
8.18946e-08
2.00709e-06
8.49365e-08
2.05675e-06
8.79878e-08
2.10558e-06
9.10006e-08
2.15379e-06
9.3915e-08
2.2015e-06
9.66631e-08
2.24876e-06
9.91767e-08
2.2956e-06
1.01393e-07
2.34202e-06
1.0326e-07
2.38804e-06
1.04741e-07
2.43368e-06
1.05813e-07
2.47897e-06
1.06463e-07
2.52398e-06
1.06692e-07
2.56876e-06
1.06503e-07
2.61338e-06
1.05906e-07
2.65793e-06
1.04911e-07
2.70246e-06
1.03529e-07
2.74704e-06
1.01774e-07
2.79174e-06
9.96576e-08
2.83659e-06
9.71909e-08
2.88166e-06
9.43863e-08
2.92697e-06
9.12557e-08
2.97257e-06
8.78109e-08
3.01849e-06
8.40637e-08
3.06476e-06
8.00261e-08
3.11141e-06
7.57099e-08
3.15845e-06
7.11272e-08
3.20593e-06
6.62899e-08
3.25384e-06
6.12103e-08
3.30222e-06
5.59008e-08
3.35108e-06
5.0374e-08
3.40044e-06
4.46429e-08
3.4503e-06
3.87206e-08
3.50068e-06
3.26211e-08
3.55158e-06
2.63588e-08
3.60303e-06
1.99489e-08
3.65501e-06
1.34075e-08
3.70754e-06
6.75164e-09
3.76061e-06
3.81422e-06
2.46032e-08
7.90306e-07
4.17939e-08
1.09573e-06
5.15955e-08
1.30755e-06
5.77098e-08
1.45544e-06
6.20968e-08
1.56441e-06
6.56376e-08
1.6507e-06
6.87148e-08
1.72338e-06
7.1538e-08
1.78754e-06
7.42341e-08
1.84617e-06
7.68829e-08
1.90114e-06
7.95331e-08
1.95362e-06
8.2208e-08
2.00442e-06
8.49097e-08
2.05405e-06
8.7621e-08
2.10287e-06
9.03081e-08
2.15111e-06
9.29226e-08
2.19888e-06
9.54063e-08
2.24628e-06
9.76967e-08
2.29331e-06
9.97333e-08
2.33999e-06
1.01463e-07
2.38631e-06
1.02845e-07
2.4323e-06
1.0385e-07
2.47797e-06
1.04463e-07
2.52336e-06
1.04678e-07
2.56854e-06
1.04495e-07
2.61356e-06
1.03922e-07
2.6585e-06
1.02966e-07
2.70342e-06
1.01637e-07
2.74837e-06
9.99458e-08
2.79343e-06
9.79024e-08
2.83864e-06
9.55173e-08
2.88404e-06
9.2801e-08
2.92969e-06
8.9764e-08
2.97561e-06
8.64167e-08
3.02184e-06
8.27698e-08
3.06841e-06
7.88341e-08
3.11534e-06
7.46204e-08
3.16267e-06
7.01399e-08
3.21041e-06
6.54037e-08
3.25858e-06
6.04235e-08
3.3072e-06
5.5211e-08
3.35629e-06
4.97782e-08
3.40587e-06
4.41376e-08
3.45594e-06
3.83022e-08
3.50651e-06
3.22852e-08
3.5576e-06
2.61009e-08
3.60921e-06
1.97639e-08
3.66135e-06
1.32901e-08
3.71402e-06
6.69619e-09
3.76721e-06
3.82092e-06
2.40744e-08
7.66232e-07
4.15186e-08
1.07828e-06
5.18676e-08
1.2972e-06
5.83691e-08
1.44894e-06
6.29841e-08
1.5598e-06
6.66213e-08
1.64707e-06
6.96953e-08
1.72031e-06
7.24353e-08
1.7848e-06
7.49822e-08
1.84363e-06
7.7428e-08
1.89869e-06
7.98323e-08
1.95122e-06
8.22297e-08
2.00202e-06
8.46341e-08
2.05165e-06
8.70407e-08
2.10047e-06
8.94275e-08
2.14872e-06
9.17578e-08
2.19655e-06
9.39833e-08
2.24405e-06
9.60488e-08
2.29124e-06
9.78975e-08
2.33814e-06
9.94775e-08
2.38473e-06
1.00745e-07
2.43103e-06
1.01669e-07
2.47704e-06
1.02229e-07
2.5228e-06
1.02415e-07
2.56836e-06
1.02225e-07
2.61375e-06
1.01662e-07
2.65906e-06
1.00733e-07
2.70435e-06
9.9446e-08
2.74966e-06
9.78093e-08
2.79507e-06
9.58322e-08
2.84062e-06
9.35238e-08
2.88635e-06
9.08933e-08
2.93232e-06
8.79496e-08
2.97855e-06
8.47022e-08
3.02509e-06
8.11604e-08
3.07195e-06
7.73338e-08
3.11917e-06
7.32323e-08
3.16677e-06
6.8866e-08
3.21477e-06
6.42453e-08
3.2632e-06
5.93809e-08
3.31207e-06
5.42839e-08
3.36139e-06
4.89655e-08
3.41119e-06
4.34378e-08
3.46146e-06
3.7713e-08
3.51224e-06
3.1804e-08
3.56351e-06
2.57244e-08
3.61529e-06
1.94885e-08
3.66759e-06
1.31115e-08
3.72039e-06
6.60965e-09
3.77371e-06
3.82753e-06
2.33124e-08
7.4292e-07
4.08082e-08
1.06079e-06
5.15998e-08
1.28641e-06
5.84576e-08
1.44208e-06
6.32936e-08
1.55496e-06
6.70355e-08
1.64332e-06
7.01261e-08
1.71722e-06
7.28122e-08
1.78211e-06
7.52467e-08
1.84119e-06
7.75306e-08
1.89641e-06
7.97321e-08
1.94902e-06
8.18946e-08
1.99986e-06
8.40415e-08
2.0495e-06
8.61777e-08
2.09833e-06
8.82923e-08
2.1466e-06
9.03589e-08
2.19449e-06
9.23388e-08
2.24207e-06
9.41846e-08
2.2894e-06
9.5845e-08
2.33648e-06
9.72701e-08
2.38331e-06
9.84162e-08
2.42988e-06
9.92493e-08
2.47621e-06
9.97459e-08
2.52231e-06
9.98928e-08
2.56821e-06
9.9685e-08
2.61396e-06
9.91234e-08
2.65962e-06
9.82125e-08
2.70526e-06
9.69589e-08
2.75091e-06
9.53701e-08
2.79666e-06
9.34541e-08
2.84253e-06
9.12187e-08
2.88859e-06
8.8672e-08
2.93487e-06
8.5822e-08
2.9814e-06
8.26768e-08
3.02823e-06
7.92446e-08
3.07538e-06
7.55339e-08
3.12288e-06
7.15537e-08
3.17075e-06
6.73129e-08
3.21901e-06
6.2821e-08
3.26769e-06
5.8088e-08
3.3168e-06
5.31239e-08
3.36636e-06
4.79395e-08
3.41637e-06
4.25459e-08
3.46686e-06
3.69548e-08
3.51783e-06
3.11784e-08
3.56929e-06
2.52298e-08
3.62124e-06
1.91226e-08
3.67369e-06
1.28714e-08
3.72664e-06
6.49181e-09
3.78009e-06
3.83402e-06
2.23557e-08
7.20564e-07
3.97078e-08
1.04344e-06
5.08334e-08
1.27528e-06
5.80079e-08
1.43491e-06
6.30487e-08
1.54992e-06
6.6893e-08
1.63948e-06
7.00089e-08
1.7141e-06
7.2659e-08
1.77946e-06
7.50058e-08
1.83885e-06
7.7158e-08
1.89425e-06
7.91903e-08
1.94698e-06
8.11529e-08
1.99789e-06
8.30764e-08
2.04758e-06
8.49743e-08
2.09643e-06
8.68442e-08
2.14473e-06
8.86689e-08
2.19266e-06
9.04191e-08
2.24032e-06
9.2055e-08
2.28776e-06
9.35314e-08
2.335e-06
9.48016e-08
2.38204e-06
9.5823e-08
2.42886e-06
9.65604e-08
2.47547e-06
9.69881e-08
2.52188e-06
9.709e-08
2.56811e-06
9.68584e-08
2.61419e-06
9.6292e-08
2.66019e-06
9.53937e-08
2.70615e-06
9.41687e-08
2.75214e-06
9.26237e-08
2.7982e-06
9.07656e-08
2.84439e-06
8.86014e-08
2.89075e-06
8.61381e-08
2.93733e-06
8.3383e-08
2.98416e-06
8.03429e-08
3.03127e-06
7.70253e-08
3.0787e-06
7.34375e-08
3.12647e-06
6.95874e-08
3.1746e-06
6.54832e-08
3.22312e-06
6.11333e-08
3.27204e-06
5.65467e-08
3.32139e-06
5.17327e-08
3.37117e-06
4.67012e-08
3.4214e-06
4.14626e-08
3.4721e-06
3.60279e-08
3.52326e-06
3.04085e-08
3.57491e-06
2.46168e-08
3.62703e-06
1.86658e-08
3.67964e-06
1.25693e-08
3.73274e-06
6.34234e-09
3.78631e-06
3.84036e-06
2.12325e-08
6.99331e-07
3.82542e-08
1.02642e-06
4.96042e-08
1.26393e-06
5.70498e-08
1.42746e-06
6.22725e-08
1.5447e-06
6.62097e-08
1.63554e-06
6.9351e-08
1.71096e-06
7.19731e-08
1.77684e-06
7.42473e-08
1.83657e-06
7.62885e-08
1.89221e-06
7.81761e-08
1.9451e-06
7.99659e-08
1.9961e-06
8.1694e-08
2.04585e-06
8.33808e-08
2.09474e-06
8.50307e-08
2.14308e-06
8.66351e-08
2.19106e-06
8.81724e-08
2.23878e-06
8.96104e-08
2.28632e-06
9.09101e-08
2.3337e-06
9.2029e-08
2.38092e-06
9.29264e-08
2.42797e-06
9.35671e-08
2.47483e-06
9.39237e-08
2.52152e-06
9.39779e-08
2.56805e-06
9.37198e-08
2.61445e-06
9.31461e-08
2.66077e-06
9.22581e-08
2.70704e-06
9.10598e-08
2.75334e-06
8.95571e-08
2.7997e-06
8.77562e-08
2.84619e-06
8.56634e-08
2.89284e-06
8.32851e-08
2.93971e-06
8.06275e-08
2.98682e-06
7.76969e-08
3.0342e-06
7.44998e-08
3.0819e-06
7.10425e-08
3.12992e-06
6.73322e-08
3.17831e-06
6.33758e-08
3.22707e-06
5.91811e-08
3.27624e-06
5.47561e-08
3.32581e-06
5.01093e-08
3.37582e-06
4.52497e-08
3.42626e-06
4.0187e-08
3.47716e-06
3.49312e-08
3.52852e-06
2.94931e-08
3.58034e-06
2.38844e-08
3.63264e-06
1.81171e-08
3.68541e-06
1.22046e-08
3.73865e-06
6.16076e-09
3.79236e-06
3.84652e-06
1.99657e-08
6.79366e-07
3.64795e-08
1.0099e-06
4.79423e-08
1.25247e-06
5.56069e-08
1.4198e-06
6.09835e-08
1.53932e-06
6.49981e-08
1.63153e-06
6.81578e-08
1.7078e-06
7.07524e-08
1.77425e-06
7.29611e-08
1.83436e-06
7.49034e-08
1.89027e-06
7.66635e-08
1.94334e-06
7.83003e-08
1.99447e-06
7.98551e-08
2.04429e-06
8.13527e-08
2.09325e-06
8.28045e-08
2.14163e-06
8.42079e-08
2.18965e-06
8.55486e-08
2.23744e-06
8.68016e-08
2.28507e-06
8.79337e-08
2.33257e-06
8.89072e-08
2.37995e-06
8.9684e-08
2.42719e-06
9.02294e-08
2.47429e-06
9.05156e-08
2.52124e-06
9.05225e-08
2.56805e-06
9.02382e-08
2.61474e-06
8.96575e-08
2.66135e-06
8.87803e-08
2.70792e-06
8.76097e-08
2.75451e-06
8.61507e-08
2.80116e-06
8.44088e-08
2.84793e-06
8.23901e-08
2.89486e-06
8.01002e-08
2.942e-06
7.75449e-08
2.98937e-06
7.47297e-08
3.03702e-06
7.16603e-08
3.08497e-06
6.83424e-08
3.13324e-06
6.47822e-08
3.18187e-06
6.09859e-08
3.23087e-06
5.69604e-08
3.28026e-06
5.27127e-08
3.33006e-06
4.82506e-08
3.38028e-06
4.35822e-08
3.43093e-06
3.87164e-08
3.48203e-06
3.36623e-08
3.53357e-06
2.84302e-08
3.58558e-06
2.30306e-08
3.63804e-06
1.74751e-08
3.69097e-06
1.1776e-08
3.74435e-06
5.94649e-09
3.79819e-06
3.85247e-06
1.85748e-08
6.60791e-07
3.44141e-08
9.94062e-07
4.58751e-08
1.24101e-06
5.36992e-08
1.41197e-06
5.91954e-08
1.53382e-06
6.32662e-08
1.62746e-06
6.64317e-08
1.70463e-06
6.89931e-08
1.77169e-06
7.11364e-08
1.83222e-06
7.29856e-08
1.88842e-06
7.46278e-08
1.94169e-06
7.61255e-08
1.99297e-06
7.7523e-08
2.0429e-06
7.88494e-08
2.09192e-06
8.01205e-08
2.14036e-06
8.134e-08
2.18843e-06
8.24995e-08
2.23628e-06
8.358e-08
2.28399e-06
8.45545e-08
2.33159e-06
8.53898e-08
2.37911e-06
8.6051e-08
2.42653e-06
8.65051e-08
2.47383e-06
8.67237e-08
2.52102e-06
8.6686e-08
2.56808e-06
8.63781e-08
2.61504e-06
8.57933e-08
2.66193e-06
8.49302e-08
2.70878e-06
8.37908e-08
2.75565e-06
8.23794e-08
2.80257e-06
8.07011e-08
2.84961e-06
7.87615e-08
2.8968e-06
7.65659e-08
2.94419e-06
7.41196e-08
2.99182e-06
7.14276e-08
3.03971e-06
6.8495e-08
3.0879e-06
6.53269e-08
3.13641e-06
6.19287e-08
3.18527e-06
5.83058e-08
3.23449e-06
5.44643e-08
3.2841e-06
5.04105e-08
3.33411e-06
4.61514e-08
3.38454e-06
4.16942e-08
3.43539e-06
3.70469e-08
3.48667e-06
3.22181e-08
3.5384e-06
2.72169e-08
3.59058e-06
2.20533e-08
3.6432e-06
1.6738e-08
3.69628e-06
1.12824e-08
3.74981e-06
5.69886e-09
3.80377e-06
3.85817e-06
1.70768e-08
6.43714e-07
3.2087e-08
9.79052e-07
4.34286e-08
1.22967e-06
5.13438e-08
1.40406e-06
5.6918e-08
1.52825e-06
6.10177e-08
1.62336e-06
6.41705e-08
1.70148e-06
6.6687e-08
1.76917e-06
6.87592e-08
1.83015e-06
7.05149e-08
1.88667e-06
7.20435e-08
1.94016e-06
7.341e-08
1.9916e-06
7.46611e-08
2.04164e-06
7.58293e-08
2.09075e-06
7.69343e-08
2.13926e-06
7.79843e-08
2.18738e-06
7.89759e-08
2.23529e-06
7.98964e-08
2.28307e-06
8.07234e-08
2.33077e-06
8.14288e-08
2.3784e-06
8.19811e-08
2.42598e-06
8.23491e-08
2.47347e-06
8.25051e-08
2.52086e-06
8.24272e-08
2.56816e-06
8.21007e-08
2.61537e-06
8.15171e-08
2.66251e-06
8.06737e-08
2.70963e-06
7.95716e-08
2.75675e-06
7.82143e-08
2.80393e-06
7.66066e-08
2.85122e-06
7.47537e-08
2.89866e-06
7.26607e-08
2.94629e-06
7.03324e-08
2.99415e-06
6.77736e-08
3.04227e-06
6.49888e-08
3.09068e-06
6.19827e-08
3.13942e-06
5.87598e-08
3.18849e-06
5.53252e-08
3.23793e-06
5.1684e-08
3.28774e-06
4.78419e-08
3.33796e-06
4.38049e-08
3.38857e-06
3.95798e-08
3.43961e-06
3.51736e-08
3.49108e-06
3.05941e-08
3.54298e-06
2.58498e-08
3.59532e-06
2.09497e-08
3.6481e-06
1.59036e-08
3.70133e-06
1.07223e-08
3.75499e-06
5.41714e-09
3.80908e-06
3.86358e-06
1.5488e-08
6.28226e-07
2.9527e-08
9.65013e-07
4.06271e-08
1.21857e-06
4.85555e-08
1.39613e-06
5.4158e-08
1.52265e-06
5.82521e-08
1.61926e-06
6.13674e-08
1.69836e-06
6.38214e-08
1.76672e-06
6.58111e-08
1.82816e-06
6.74673e-08
1.88501e-06
6.88813e-08
1.93875e-06
7.01196e-08
1.99036e-06
7.12309e-08
2.04053e-06
7.22501e-08
2.08973e-06
7.32e-08
2.13831e-06
7.40922e-08
2.18649e-06
7.49284e-08
2.23445e-06
7.57e-08
2.2823e-06
7.63901e-08
2.33008e-06
7.69747e-08
2.37782e-06
7.74259e-08
2.42552e-06
7.77148e-08
2.47318e-06
7.78145e-08
2.52076e-06
7.77032e-08
2.56827e-06
7.73647e-08
2.61571e-06
7.67897e-08
2.66309e-06
7.59739e-08
2.71044e-06
7.49175e-08
2.75781e-06
7.36235e-08
2.80523e-06
7.20959e-08
2.85275e-06
7.03398e-08
2.90041e-06
6.836e-08
2.94827e-06
6.61612e-08
2.99634e-06
6.37478e-08
3.04468e-06
6.1124e-08
3.09331e-06
5.82939e-08
3.14225e-06
5.52617e-08
3.19152e-06
5.20318e-08
3.24116e-06
4.86086e-08
3.29117e-06
4.49973e-08
3.34157e-06
4.12032e-08
3.39237e-06
3.72322e-08
3.44358e-06
3.30907e-08
3.49522e-06
2.87857e-08
3.54729e-06
2.43249e-08
3.59978e-06
1.97165e-08
3.65271e-06
1.49697e-08
3.70608e-06
1.00941e-08
3.75986e-06
5.10055e-09
3.81407e-06
3.86868e-06
1.38231e-08
6.14403e-07
2.67613e-08
9.52075e-07
3.74928e-08
1.20784e-06
4.53455e-08
1.38828e-06
5.09165e-08
1.51708e-06
5.49626e-08
1.61522e-06
5.80085e-08
1.69532e-06
6.03763e-08
1.76435e-06
6.22667e-08
1.82627e-06
6.38123e-08
1.88346e-06
6.51058e-08
1.93746e-06
6.62148e-08
1.98926e-06
6.71892e-08
2.03956e-06
6.80652e-08
2.08886e-06
6.88683e-08
2.1375e-06
6.96132e-08
2.18575e-06
7.03046e-08
2.23376e-06
7.09386e-08
2.28166e-06
7.15022e-08
2.32951e-06
7.19759e-08
2.37735e-06
7.2335e-08
2.42517e-06
7.25533e-08
2.47296e-06
7.26051e-08
2.52071e-06
7.24686e-08
2.56841e-06
7.21271e-08
2.61605e-06
7.157e-08
2.66365e-06
7.0792e-08
2.71122e-06
6.97922e-08
2.75881e-06
6.85727e-08
2.80644e-06
6.71373e-08
2.85418e-06
6.54906e-08
2.90206e-06
6.36372e-08
2.95012e-06
6.15817e-08
2.9984e-06
5.93282e-08
3.04693e-06
5.68807e-08
3.09575e-06
5.4243e-08
3.14488e-06
5.14187e-08
3.19435e-06