/*--------------------------------*- C++ -*----------------------------------*\
| =========                 |                                                 |
| \\      /  F ield         | OpenFOAM: The Open Source CFD Toolbox           |
|  \\    /   O peration     | Version:  2.2.x                                 |
|   \\  /    A nd           | Web:      www.OpenFOAM.org                      |
|    \\/     M anipulation  |                                                 |
\*---------------------------------------------------------------------------*/
FoamFile
{
    version     2.0;
    format      ascii;
    class       surfaceScalarField;
    location    "2000";
    object      phia;
}
// * * * * * * * * * * * * * * * * * * * * * * * * * * * * * * * * * * * * * //

dimensions      [0 3 -1 0 0 0 0];

internalField   nonuniform List<scalar> 
9850
(
-1.19722e-07
1.92045e-06
-1.84077e-07
1.89073e-06
-5.73327e-07
2.24165e-06
-8.84907e-07
2.19037e-06
-1.20676e-06
2.22741e-06
-1.47221e-06
2.19815e-06
-1.71095e-06
2.19896e-06
-1.91243e-06
2.18965e-06
-2.08361e-06
2.18766e-06
-2.22452e-06
2.18612e-06
-2.33825e-06
2.18808e-06
-2.42669e-06
2.19235e-06
-2.49221e-06
2.19938e-06
-2.53685e-06
2.20891e-06
-2.56268e-06
2.22094e-06
-2.57164e-06
2.23534e-06
-2.56556e-06
2.25202e-06
-2.54617e-06
2.27087e-06
-2.51506e-06
2.29179e-06
-2.47373e-06
2.31465e-06
-2.42353e-06
2.33935e-06
-2.3657e-06
2.36576e-06
-2.30135e-06
2.39377e-06
-2.2315e-06
2.42328e-06
-2.15702e-06
2.45418e-06
-2.07871e-06
2.48638e-06
-1.99728e-06
2.51979e-06
-1.91333e-06
2.55434e-06
-1.82742e-06
2.58996e-06
-1.74003e-06
2.62659e-06
-1.65156e-06
2.66418e-06
-1.56238e-06
2.70268e-06
-1.4728e-06
2.74206e-06
-1.3831e-06
2.78228e-06
-1.29349e-06
2.82329e-06
-1.20418e-06
2.86508e-06
-1.1153e-06
2.9076e-06
-1.02696e-06
2.95083e-06
-9.39233e-07
2.99474e-06
-8.5216e-07
3.03931e-06
-7.65738e-07
3.0845e-06
-6.7993e-07
3.13029e-06
-5.9467e-07
3.17665e-06
-5.09853e-07
3.22357e-06
-4.25344e-07
3.27101e-06
-3.40969e-07
3.31895e-06
-2.56516e-07
3.36735e-06
-1.71715e-07
3.41618e-06
-8.62432e-08
3.46539e-06
3.5152e-06
5.79445e-07
1.341e-06
4.31114e-07
2.03906e-06
2.44117e-07
2.42864e-06
2.85122e-08
2.40597e-06
-1.64733e-07
2.42065e-06
-3.29552e-07
2.36297e-06
-4.71359e-07
2.34077e-06
-5.92188e-07
2.31048e-06
-6.95173e-07
2.29065e-06
-7.82106e-07
2.27305e-06
-8.54588e-07
2.26056e-06
-9.13897e-07
2.25166e-06
-9.61187e-07
2.24667e-06
-9.97521e-07
2.24525e-06
-1.0239e-06
2.24732e-06
-1.04128e-06
2.25271e-06
-1.05056e-06
2.26129e-06
-1.05259e-06
2.2729e-06
-1.04818e-06
2.28738e-06
-1.03808e-06
2.30456e-06
-1.023e-06
2.32427e-06
-1.00357e-06
2.34633e-06
-9.80388e-07
2.37059e-06
-9.53986e-07
2.39688e-06
-9.24847e-07
2.42504e-06
-8.93408e-07
2.45494e-06
-8.60056e-07
2.48643e-06
-8.25139e-07
2.51942e-06
-7.88966e-07
2.55378e-06
-7.51811e-07
2.58943e-06
-7.13919e-07
2.62629e-06
-6.75504e-07
2.66427e-06
-6.36755e-07
2.70331e-06
-5.97836e-07
2.74336e-06
-5.58888e-07
2.78434e-06
-5.20028e-07
2.82622e-06
-4.81353e-07
2.86892e-06
-4.42935e-07
2.91242e-06
-4.04828e-07
2.95664e-06
-3.67061e-07
3.00154e-06
-3.29643e-07
3.04708e-06
-2.92564e-07
3.09321e-06
-2.55791e-07
3.13988e-06
-2.19275e-07
3.18705e-06
-1.82945e-07
3.23468e-06
-1.4671e-07
3.28271e-06
-1.10458e-07
3.3311e-06
-7.40586e-08
3.37978e-06
-3.73253e-08
3.42865e-06
3.47788e-06
1.86938e-07
1.15406e-06
2.53438e-07
1.97256e-06
1.99858e-07
2.48222e-06
1.10504e-07
2.49532e-06
5.30354e-09
2.52585e-06
-9.65961e-08
2.46487e-06
-1.93216e-07
2.43739e-06
-2.81667e-07
2.39893e-06
-3.61489e-07
2.37047e-06
-4.32285e-07
2.34385e-06
-4.94076e-07
2.32235e-06
-5.47078e-07
2.30466e-06
-5.91648e-07
2.29124e-06
-6.28243e-07
2.28184e-06
-6.57372e-07
2.27645e-06
-6.79579e-07
2.27492e-06
-6.95414e-07
2.27713e-06
-7.0543e-07
2.28292e-06
-7.10168e-07
2.29212e-06
-7.10152e-07
2.30454e-06
-7.05884e-07
2.32e-06
-6.97835e-07
2.33828e-06
-6.86451e-07
2.35921e-06
-6.72142e-07
2.38257e-06
-6.55291e-07
2.40819e-06
-6.36245e-07
2.43589e-06
-6.15323e-07
2.46551e-06
-5.92816e-07
2.49691e-06
-5.68986e-07
2.52995e-06
-5.4407e-07
2.56452e-06
-5.18283e-07
2.6005e-06
-4.91817e-07
2.6378e-06
-4.64842e-07
2.67634e-06
-4.37509e-07
2.71602e-06
-4.09949e-07
2.75678e-06
-3.82275e-07
2.79854e-06
-3.54578e-07
2.84123e-06
-3.26931e-07
2.88477e-06
-2.9939e-07
2.9291e-06
-2.71989e-07
2.97414e-06
-2.44745e-07
3.01984e-06
-2.17655e-07
3.06612e-06
-1.90699e-07
3.11293e-06
-1.63839e-07
3.16019e-06
-1.37018e-07
3.20786e-06
-1.10163e-07
3.25586e-06
-8.31799e-08
3.30412e-06
-5.59588e-08
3.35256e-06
-2.83584e-08
3.40105e-06
3.44952e-06
5.76131e-08
1.09645e-06
1.3955e-07
1.89063e-06
1.37122e-07
2.48465e-06
8.81617e-08
2.54429e-06
2.45103e-08
2.5895e-06
-4.61054e-08
2.53548e-06
-1.16571e-07
2.50786e-06
-1.84735e-07
2.46709e-06
-2.49042e-07
2.43477e-06
-3.08697e-07
2.4035e-06
-3.63024e-07
2.37668e-06
-4.11627e-07
2.35326e-06
-4.54265e-07
2.33388e-06
-4.90881e-07
2.31846e-06
-5.21555e-07
2.30712e-06
-5.46477e-07
2.29984e-06
-5.65918e-07
2.29657e-06
-5.80204e-07
2.29721e-06
-5.89695e-07
2.30161e-06
-5.94767e-07
2.30962e-06
-5.95804e-07
2.32103e-06
-5.93183e-07
2.33566e-06
-5.87272e-07
2.3533e-06
-5.78423e-07
2.37372e-06
-5.6697e-07
2.39674e-06
-5.53226e-07
2.42215e-06
-5.37482e-07
2.44977e-06
-5.2001e-07
2.47944e-06
-5.01059e-07
2.511e-06
-4.80859e-07
2.54432e-06
-4.59619e-07
2.57926e-06
-4.3753e-07
2.61571e-06
-4.14762e-07
2.65357e-06
-3.91468e-07
2.69273e-06
-3.67783e-07
2.7331e-06
-3.43821e-07
2.77458e-06
-3.19681e-07
2.81709e-06
-2.95441e-07
2.86053e-06
-2.71161e-07
2.90482e-06
-2.46883e-07
2.94986e-06
-2.22629e-07
2.99558e-06
-1.98403e-07
3.04189e-06
-1.74193e-07
3.08871e-06
-1.49965e-07
3.13596e-06
-1.25669e-07
3.18356e-06
-1.01235e-07
3.23142e-06
-7.65756e-08
3.27946e-06
-5.15701e-08
3.32755e-06
-2.60899e-08
3.37557e-06
3.42343e-06
3.39916e-08
1.06246e-06
7.87499e-08
1.84587e-06
8.43802e-08
2.47902e-06
5.32926e-08
2.57537e-06
8.31149e-09
2.63448e-06
-4.55181e-08
2.58931e-06
-1.01334e-07
2.56367e-06
-1.57137e-07
2.52289e-06
-2.11199e-07
2.48884e-06
-2.62672e-07
2.45498e-06
-3.10779e-07
2.42478e-06
-3.54966e-07
2.39745e-06
-3.94786e-07
2.3737e-06
-4.29944e-07
2.35362e-06
-4.6028e-07
2.33746e-06
-4.85761e-07
2.32532e-06
-5.0646e-07
2.31727e-06
-5.22533e-07
2.31328e-06
-5.34198e-07
2.31327e-06
-5.41716e-07
2.31713e-06
-5.45375e-07
2.32469e-06
-5.45478e-07
2.33577e-06
-5.42332e-07
2.35015e-06
-5.3624e-07
2.36763e-06
-5.27502e-07
2.388e-06
-5.16403e-07
2.41105e-06
-5.03217e-07
2.43658e-06
-4.882e-07
2.46442e-06
-4.71596e-07
2.4944e-06
-4.53629e-07
2.52635e-06
-4.34508e-07
2.56014e-06
-4.14424e-07
2.59563e-06
-3.93552e-07
2.6327e-06
-3.72049e-07
2.67123e-06
-3.50053e-07
2.7111e-06
-3.27687e-07
2.75222e-06
-3.05054e-07
2.79445e-06
-2.82238e-07
2.83771e-06
-2.59306e-07
2.88188e-06
-2.36306e-07
2.92686e-06
-2.13268e-07
2.97255e-06
-1.90202e-07
3.01883e-06
-1.67101e-07
3.06561e-06
-1.43942e-07
3.1128e-06
-1.2068e-07
3.1603e-06
-9.72555e-08
3.208e-06
-7.35896e-08
3.25579e-06
-4.95819e-08
3.30355e-06
-2.51229e-08
3.35111e-06
3.39831e-06
5.36462e-09
1.05709e-06
3.67623e-08
1.81447e-06
3.75297e-08
2.47825e-06
1.31924e-08
2.59971e-06
-2.34648e-08
2.67114e-06
-6.81116e-08
2.63396e-06
-1.15056e-07
2.61062e-06
-1.62534e-07
2.57037e-06
-2.09088e-07
2.53539e-06
-2.53966e-07
2.49985e-06
-2.96529e-07
2.46735e-06
-3.3626e-07
2.43718e-06
-3.72702e-07
2.41014e-06
-4.05481e-07
2.3864e-06
-4.34319e-07
2.3663e-06
-4.59047e-07
2.35005e-06
-4.79596e-07
2.33782e-06
-4.95993e-07
2.32968e-06
-5.08341e-07
2.32562e-06
-5.168e-07
2.32559e-06
-5.21579e-07
2.32947e-06
-5.22911e-07
2.3371e-06
-5.21051e-07
2.34829e-06
-5.16262e-07
2.36284e-06
-5.0881e-07
2.38055e-06
-4.98958e-07
2.4012e-06
-4.86964e-07
2.42459e-06
-4.73074e-07
2.45053e-06
-4.57525e-07
2.47885e-06
-4.40541e-07
2.50937e-06
-4.22331e-07
2.54193e-06
-4.03089e-07
2.57639e-06
-3.82995e-07
2.6126e-06
-3.62212e-07
2.65044e-06
-3.40885e-07
2.68978e-06
-3.19142e-07
2.73047e-06
-2.97095e-07
2.77241e-06
-2.74835e-07
2.81545e-06
-2.52437e-07
2.85949e-06
-2.29956e-07
2.90438e-06
-2.0743e-07
2.95002e-06
-1.84878e-07
2.99628e-06
-1.623e-07
3.04304e-06
-1.39682e-07
3.09019e-06
-1.16988e-07
3.13761e-06
-9.41679e-08
3.18518e-06
-7.11537e-08
3.23278e-06
-4.78561e-08
3.28025e-06
-2.41826e-08
3.32744e-06
3.37412e-06
-1.49674e-08
1.07206e-06
1.22512e-09
1.79828e-06
-8.08443e-09
2.48756e-06
-3.09359e-08
2.62256e-06
-6.59931e-08
2.7062e-06
-1.05972e-07
2.67394e-06
-1.48191e-07
2.65284e-06
-1.90364e-07
2.61254e-06
-2.3168e-07
2.57671e-06
-2.71425e-07
2.5396e-06
-3.0922e-07
2.50514e-06
-3.44671e-07
2.47263e-06
-3.77437e-07
2.44291e-06
-4.07185e-07
2.41615e-06
-4.33632e-07
2.39275e-06
-4.56556e-07
2.37298e-06
-4.75817e-07
2.35708e-06
-4.91355e-07
2.34521e-06
-5.03187e-07
2.33745e-06
-5.11396e-07
2.3338e-06
-5.16118e-07
2.33419e-06
-5.17529e-07
2.33851e-06
-5.15833e-07
2.34659e-06
-5.11255e-07
2.35826e-06
-5.04029e-07
2.37332e-06
-4.94398e-07
2.39156e-06
-4.82601e-07
2.41279e-06
-4.68876e-07
2.43681e-06
-4.53455e-07
2.46343e-06
-4.36559e-07
2.49247e-06
-4.18399e-07
2.52377e-06
-3.99174e-07
2.55716e-06
-3.79068e-07
2.5925e-06
-3.58251e-07
2.62963e-06
-3.36876e-07
2.6684e-06
-3.1508e-07
2.70868e-06
-2.92981e-07
2.75031e-06
-2.70682e-07
2.79315e-06
-2.48264e-07
2.83707e-06
-2.25793e-07
2.88191e-06
-2.03316e-07
2.92754e-06
-1.80862e-07
2.97382e-06
-1.58442e-07
3.02062e-06
-1.36051e-07
3.06779e-06
-1.13667e-07
3.11522e-06
-9.12529e-08
3.16276e-06
-6.87558e-08
3.21028e-06
-4.61075e-08
3.2576e-06
-2.32314e-08
3.30456e-06
3.35089e-06
-3.68633e-08
1.10892e-06
-3.0267e-08
1.79168e-06
-5.42318e-08
2.51153e-06
-7.76704e-08
2.646e-06
-1.1545e-07
2.74398e-06
-1.5366e-07
2.71215e-06
-1.94035e-07
2.69321e-06
-2.33048e-07
2.65156e-06
-2.70833e-07
2.61449e-06
-3.06632e-07
2.5754e-06
-3.40395e-07
2.5389e-06
-3.7188e-07
2.50412e-06
-4.00928e-07
2.47196e-06
-4.27317e-07
2.44253e-06
-4.50831e-07
2.41626e-06
-4.71268e-07
2.39341e-06
-4.88467e-07
2.37428e-06
-5.02325e-07
2.35907e-06
-5.12801e-07
2.34793e-06
-5.19918e-07
2.34092e-06
-5.23753e-07
2.33803e-06
-5.24429e-07
2.33919e-06
-5.22105e-07
2.34427e-06
-5.16968e-07
2.35313e-06
-5.09223e-07
2.36558e-06
-4.99089e-07
2.38143e-06
-4.8679e-07
2.40049e-06
-4.72552e-07
2.42257e-06
-4.56602e-07
2.44748e-06
-4.3916e-07
2.47503e-06
-4.20437e-07
2.50505e-06
-4.00638e-07
2.53736e-06
-3.79951e-07
2.57181e-06
-3.58555e-07
2.60823e-06
-3.3661e-07
2.64646e-06
-3.14265e-07
2.68633e-06
-2.91646e-07
2.72769e-06
-2.68866e-07
2.77037e-06
-2.46018e-07
2.81422e-06
-2.23179e-07
2.85907e-06
-2.00406e-07
2.90477e-06
-1.7774e-07
2.95116e-06
-1.55206e-07
2.99808e-06
-1.32811e-07
3.0454e-06
-1.10548e-07
3.09296e-06
-8.8397e-08
3.14061e-06
-6.63203e-08
3.1882e-06
-4.42718e-08
3.23555e-06
-2.21904e-08
3.28248e-06
3.3287e-06
-5.34713e-08
1.1624e-06
-5.98199e-08
1.79803e-06
-9.81119e-08
2.54982e-06
-1.25985e-07
2.67387e-06
-1.68671e-07
2.78666e-06
-2.07602e-07
2.75108e-06
-2.48336e-07
2.73395e-06
-2.85955e-07
2.68918e-06
-3.21654e-07
2.65019e-06
-3.54562e-07
2.60831e-06
-3.85004e-07
2.56935e-06
-4.12898e-07
2.53201e-06
-4.38306e-07
2.49736e-06
-4.61161e-07
2.46539e-06
-4.81373e-07
2.43647e-06
-4.98811e-07
2.41085e-06
-5.13348e-07
2.38882e-06
-5.24875e-07
2.3706e-06
-5.33325e-07
2.35638e-06
-5.38682e-07
2.34628e-06
-5.40974e-07
2.34032e-06
-5.40282e-07
2.33849e-06
-5.36722e-07
2.34071e-06
-5.30444e-07
2.34685e-06
-5.21624e-07
2.35676e-06
-5.10455e-07
2.37026e-06
-4.97145e-07
2.38718e-06
-4.81907e-07
2.40733e-06
-4.6496e-07
2.43053e-06
-4.4652e-07
2.45659e-06
-4.268e-07
2.48533e-06
-4.06006e-07
2.51657e-06
-3.84334e-07
2.55014e-06
-3.61968e-07
2.58587e-06
-3.3908e-07
2.62357e-06
-3.15826e-07
2.66308e-06
-2.92346e-07
2.70421e-06
-2.68762e-07
2.74679e-06
-2.4518e-07
2.79064e-06
-2.21689e-07
2.83558e-06
-1.98361e-07
2.88144e-06
-1.75249e-07
2.92804e-06
-1.52394e-07
2.97523e-06
-1.2982e-07
3.02282e-06
-1.07536e-07
3.07068e-06
-8.55401e-08
3.11862e-06
-6.38173e-08
3.16648e-06
-4.23463e-08
3.21408e-06
-2.10841e-08
3.26122e-06
3.30762e-06
-7.3682e-08
1.23608e-06
-8.63509e-08
1.8107e-06
-1.391e-07
2.60257e-06
-1.73952e-07
2.70873e-06
-2.23082e-07
2.83579e-06
-2.651e-07
2.7931e-06
-3.0789e-07
2.77674e-06
-3.45602e-07
2.72689e-06
-3.80316e-07
2.6849e-06
-4.11148e-07
2.63914e-06
-4.38799e-07
2.597e-06
-4.63391e-07
2.5566e-06
-4.85228e-07
2.5192e-06
-5.04435e-07
2.4846e-06
-5.2108e-07
2.45312e-06
-5.35144e-07
2.42491e-06
-5.46566e-07
2.40024e-06
-5.55268e-07
2.3793e-06
-5.61179e-07
2.36229e-06
-5.64259e-07
2.34936e-06
-5.64507e-07
2.34057e-06
-5.61962e-07
2.33595e-06
-5.56707e-07
2.33545e-06
-5.48856e-07
2.339e-06
-5.38556e-07
2.34645e-06
-5.25975e-07
2.35768e-06
-5.11301e-07
2.37251e-06
-4.94734e-07
2.39077e-06
-4.76482e-07
2.41228e-06
-4.56755e-07
2.43686e-06
-4.35764e-07
2.46434e-06
-4.13716e-07
2.49452e-06
-3.90812e-07
2.52724e-06
-3.67241e-07
2.56229e-06
-3.43184e-07
2.59951e-06
-3.18805e-07
2.6387e-06
-2.94254e-07
2.67966e-06
-2.69668e-07
2.7222e-06
-2.45165e-07
2.76614e-06
-2.20846e-07
2.81126e-06
-1.96798e-07
2.85739e-06
-1.73091e-07
2.90434e-06
-1.49782e-07
2.95192e-06
-1.26912e-07
2.99995e-06
-1.04512e-07
3.04827e-06
-8.25996e-08
3.09671e-06
-6.11863e-08
3.14507e-06
-4.02799e-08
3.19318e-06
-1.98721e-08
3.24081e-06
3.28774e-06
2.16657e-09
1.23391e-06
-7.94115e-08
1.89228e-06
-8.30248e-08
2.60618e-06
-1.36224e-07
2.76192e-06
-1.59414e-07
2.85898e-06
-1.96229e-07
2.82992e-06
-2.24412e-07
2.80492e-06
-2.52842e-07
2.75532e-06
-2.77545e-07
2.70961e-06
-3.00207e-07
2.6618e-06
-3.20437e-07
2.61723e-06
-3.38726e-07
2.57489e-06
-3.55194e-07
2.53567e-06
-3.70044e-07
2.49945e-06
-3.8336e-07
2.46643e-06
-3.9519e-07
2.43674e-06
-4.05521e-07
2.41057e-06
-4.14315e-07
2.38809e-06
-4.21513e-07
2.36949e-06
-4.2706e-07
2.3549e-06
-4.30908e-07
2.34442e-06
-4.33029e-07
2.33807e-06
-4.3341e-07
2.33584e-06
-4.32061e-07
2.33765e-06
-4.29008e-07
2.3434e-06
-4.24295e-07
2.35297e-06
-4.17979e-07
2.36619e-06
-4.10128e-07
2.38292e-06
-4.00821e-07
2.40297e-06
-3.90141e-07
2.42618e-06
-3.78177e-07
2.45237e-06
-3.65022e-07
2.48137e-06
-3.50767e-07
2.51298e-06
-3.355e-07
2.54703e-06
-3.19308e-07
2.58332e-06
-3.0227e-07
2.62166e-06
-2.8446e-07
2.66185e-06
-2.65944e-07
2.70369e-06
-2.46777e-07
2.74697e-06
-2.27007e-07
2.79149e-06
-2.06672e-07
2.83706e-06
-1.85798e-07
2.88346e-06
-1.64404e-07
2.93052e-06
-1.42499e-07
2.97805e-06
-1.20082e-07
3.02586e-06
-9.7147e-08
3.07377e-06
-7.36814e-08
3.1216e-06
-4.96723e-08
3.16917e-06
-2.51041e-08
3.21624e-06
3.26264e-06
-6.503e-09
1.24041e-06
-6.86314e-08
1.95441e-06
-8.03194e-08
2.61787e-06
-1.21198e-07
2.8028e-06
-1.45138e-07
2.88293e-06
-1.77308e-07
2.86209e-06
-2.03683e-07
2.83129e-06
-2.29691e-07
2.78133e-06
-2.52532e-07
2.73245e-06
-2.73378e-07
2.68265e-06
-2.91956e-07
2.6358e-06
-3.08676e-07
2.59161e-06
-3.23678e-07
2.55067e-06
-3.3717e-07
2.51294e-06
-3.49263e-07
2.47853e-06
-3.60033e-07
2.44751e-06
-3.69501e-07
2.42004e-06
-3.77652e-07
2.39624e-06
-3.8445e-07
2.37629e-06
-3.89848e-07
2.3603e-06
-3.93802e-07
2.34837e-06
-3.96276e-07
2.34054e-06
-3.97248e-07
2.33681e-06
-3.9671e-07
2.33711e-06
-3.9467e-07
2.34136e-06
-3.9115e-07
2.34945e-06
-3.86184e-07
2.36123e-06
-3.79817e-07
2.37655e-06
-3.72104e-07
2.39526e-06
-3.63104e-07
2.41718e-06
-3.52885e-07
2.44215e-06
-3.41515e-07
2.47e-06
-3.29066e-07
2.50053e-06
-3.15608e-07
2.53357e-06
-3.01208e-07
2.56892e-06
-2.8593e-07
2.60638e-06
-2.69833e-07
2.64575e-06
-2.5297e-07
2.68682e-06
-2.35387e-07
2.72939e-06
-2.17121e-07
2.77323e-06
-1.98204e-07
2.81814e-06
-1.78656e-07
2.86392e-06
-1.58493e-07
2.91036e-06
-1.37722e-07
2.95728e-06
-1.16343e-07
3.00448e-06
-9.43486e-08
3.05178e-06
-7.17299e-08
3.09898e-06
-4.84728e-08
3.14591e-06
-2.45638e-08
3.19234e-06
3.23808e-06
-2.05059e-08
1.26092e-06
-5.82872e-08
1.99219e-06
-8.30495e-08
2.64263e-06
-1.13593e-07
2.83335e-06
-1.41915e-07
2.91125e-06
-1.71488e-07
2.89166e-06
-1.98461e-07
2.85827e-06
-2.23597e-07
2.80646e-06
-2.46042e-07
2.75489e-06
-2.66138e-07
2.70274e-06
-2.8395e-07
2.65362e-06
-2.9977e-07
2.60743e-06
-3.13815e-07
2.56472e-06
-3.26296e-07
2.52542e-06
-3.37365e-07
2.4896e-06
-3.47126e-07
2.45728e-06
-3.5563e-07
2.42854e-06
-3.62886e-07
2.4035e-06
-3.68877e-07
2.38228e-06
-3.73569e-07
2.36499e-06
-3.76924e-07
2.35173e-06
-3.78911e-07
2.34253e-06
-3.79506e-07
2.3374e-06
-3.78699e-07
2.3363e-06
-3.76495e-07
2.33916e-06
-3.7291e-07
2.34586e-06
-3.67973e-07
2.35629e-06
-3.61723e-07
2.3703e-06
-3.54208e-07
2.38774e-06
-3.45484e-07
2.40846e-06
-3.35612e-07
2.43228e-06
-3.24656e-07
2.45904e-06
-3.12681e-07
2.48856e-06
-2.99753e-07
2.52064e-06
-2.85937e-07
2.5551e-06
-2.71293e-07
2.59174e-06
-2.55878e-07
2.63034e-06
-2.39743e-07
2.67069e-06
-2.22935e-07
2.71258e-06
-2.0549e-07
2.75578e-06
-1.87441e-07
2.80009e-06
-1.68814e-07
2.84529e-06
-1.49625e-07
2.89117e-06
-1.29887e-07
2.93754e-06
-1.09607e-07
2.9842e-06
-8.87844e-08
3.03095e-06
-6.74183e-08
3.07762e-06
-4.55023e-08
3.12399e-06
-2.30341e-08
3.16987e-06
3.21504e-06
-2.35083e-08
1.28443e-06
-5.56183e-08
2.0243e-06
-8.1038e-08
2.66805e-06
-1.08856e-07
2.86117e-06
-1.37235e-07
2.93963e-06
-1.65691e-07
2.92011e-06
-1.92312e-07
2.88489e-06
-2.1672e-07
2.83087e-06
-2.38536e-07
2.77671e-06
-2.57849e-07
2.72206e-06
-2.74829e-07
2.6706e-06
-2.89732e-07
2.62233e-06
-3.0281e-07
2.57779e-06
-3.14293e-07
2.5369e-06
-3.24361e-07
2.49966e-06
-3.33143e-07
2.46606e-06
-3.40718e-07
2.43612e-06
-3.47118e-07
2.4099e-06
-3.52344e-07
2.38751e-06
-3.56375e-07
2.36902e-06
-3.5918e-07
2.35453e-06
-3.6073e-07
2.34408e-06
-3.61001e-07
2.33767e-06
-3.59981e-07
2.33528e-06
-3.5767e-07
2.33685e-06
-3.54079e-07
2.34227e-06
-3.49231e-07
2.35144e-06
-3.43159e-07
2.36423e-06
-3.35904e-07
2.38049e-06
-3.27518e-07
2.40007e-06
-3.18053e-07
2.42282e-06
-3.07568e-07
2.44856e-06
-2.96124e-07
2.47711e-06
-2.83782e-07
2.5083e-06
-2.70602e-07
2.54192e-06
-2.56641e-07
2.57778e-06
-2.41953e-07
2.61565e-06
-2.26588e-07
2.65532e-06
-2.1059e-07
2.69658e-06
-1.93997e-07
2.73919e-06
-1.76843e-07
2.78294e-06
-1.59154e-07
2.8276e-06
-1.40951e-07
2.87297e-06
-1.2225e-07
2.91884e-06
-1.03063e-07
2.96501e-06
-8.33963e-08
3.01129e-06
-6.32553e-08
3.05748e-06
-4.26406e-08
3.10338e-06
-2.15586e-08
3.14879e-06
3.19348e-06
-2.53677e-08
1.3098e-06
-5.43839e-08
2.05331e-06
-7.84644e-08
2.69213e-06
-1.04415e-07
2.88712e-06
-1.31963e-07
2.96717e-06
-1.59491e-07
2.94764e-06
-1.85459e-07
2.91086e-06
-2.09133e-07
2.85454e-06
-2.30221e-07
2.7978e-06
-2.48729e-07
2.74057e-06
-2.64852e-07
2.68672e-06
-2.7884e-07
2.63632e-06
-2.90967e-07
2.58992e-06
-3.01478e-07
2.54741e-06
-3.10578e-07
2.50876e-06
-3.18421e-07
2.4739e-06
-3.25109e-07
2.4428e-06
-3.30696e-07
2.41549e-06
-3.35199e-07
2.39201e-06
-3.3861e-07
2.37243e-06
-3.40907e-07
2.35683e-06
-3.42062e-07
2.34523e-06
-3.42052e-07
2.33766e-06
-3.40863e-07
2.33409e-06
-3.38489e-07
2.33447e-06
-3.34935e-07
2.33872e-06
-3.30221e-07
2.34673e-06
-3.24371e-07
2.35838e-06
-3.17421e-07
2.37354e-06
-3.09415e-07
2.39206e-06
-3.004e-07
2.4138e-06
-2.90429e-07
2.43858e-06
-2.79557e-07
2.46624e-06
-2.67839e-07
2.49658e-06
-2.55332e-07
2.52942e-06
-2.42088e-07
2.56453e-06
-2.28158e-07
2.60172e-06
-2.1359e-07
2.64076e-06
-1.98426e-07
2.68141e-06
-1.82705e-07
2.72347e-06
-1.66458e-07
2.76669e-06
-1.49715e-07
2.81086e-06
-1.325e-07
2.85575e-06
-1.14831e-07
2.90117e-06
-9.67233e-08
2.9469e-06
-7.81902e-08
2.99275e-06
-5.92425e-08
3.03853e-06
-3.9888e-08
3.08402e-06
-2.01406e-08
3.12904e-06
3.17334e-06
-2.69915e-08
1.33679e-06
-5.35613e-08
2.07988e-06
-7.60652e-08
2.71464e-06
-1.00244e-07
2.91129e-06
-1.26712e-07
2.99364e-06
-1.53233e-07
2.97416e-06
-1.7839e-07
2.93601e-06
-2.01245e-07
2.8774e-06
-2.21521e-07
2.81807e-06
-2.39178e-07
2.75822e-06
-2.54413e-07
2.70195e-06
-2.67479e-07
2.64939e-06
-2.78661e-07
2.6011e-06
-2.88221e-07
2.55697e-06
-2.96384e-07
2.51693e-06
-3.03322e-07
2.48084e-06
-3.0916e-07
2.44864e-06
-3.13971e-07
2.4203e-06
-3.17788e-07
2.39583e-06
-3.20616e-07
2.37526e-06
-3.22439e-07
2.35865e-06
-3.23234e-07
2.34603e-06
-3.22978e-07
2.33741e-06
-3.21653e-07
2.33277e-06
-3.19249e-07
2.33207e-06
-3.15767e-07
2.33524e-06
-3.11218e-07
2.34218e-06
-3.05622e-07
2.35278e-06
-2.99008e-07
2.36692e-06
-2.91412e-07
2.38447e-06
-2.82877e-07
2.40527e-06
-2.73448e-07
2.42916e-06
-2.63174e-07
2.45597e-06
-2.52105e-07
2.48551e-06
-2.40293e-07
2.5176e-06
-2.27787e-07
2.55203e-06
-2.14633e-07
2.58857e-06
-2.00876e-07
2.627e-06
-1.86558e-07
2.6671e-06
-1.71714e-07
2.70862e-06
-1.56378e-07
2.75135e-06
-1.40579e-07
2.79506e-06
-1.24342e-07
2.83952e-06
-1.07689e-07
2.88452e-06
-9.06391e-08
2.92985e-06
-7.32086e-08
2.97532e-06
-5.54138e-08
3.02073e-06
-3.72691e-08
3.06588e-06
-1.87945e-08
3.11056e-06
3.15455e-06
-2.84587e-08
1.36525e-06
-5.27779e-08
2.1042e-06
-7.3779e-08
2.73564e-06
-9.61934e-08
2.93371e-06
-1.21541e-07
3.01899e-06
-1.47014e-07
2.99964e-06
-1.71302e-07
2.9603e-06
-1.93297e-07
2.8994e-06
-2.12727e-07
2.8375e-06
-2.29512e-07
2.77501e-06
-2.43856e-07
2.7163e-06
-2.56008e-07
2.66154e-06
-2.66266e-07
2.61136e-06
-2.74904e-07
2.56561e-06
-2.82163e-07
2.52419e-06
-2.88235e-07
2.48691e-06
-2.93261e-07
2.45367e-06
-2.97333e-07
2.42437e-06
-3.00498e-07
2.39899e-06
-3.02774e-07
2.37754e-06
-3.04151e-07
2.36003e-06
-3.04612e-07
2.34649e-06
-3.04132e-07
2.33693e-06
-3.02691e-07
2.33133e-06
-3.00277e-07
2.32965e-06
-2.96884e-07
2.33184e-06
-2.92517e-07
2.33781e-06
-2.8719e-07
2.34745e-06
-2.80926e-07
2.36066e-06
-2.73754e-07
2.3773e-06
-2.65709e-07
2.39722e-06
-2.56831e-07
2.42028e-06
-2.47164e-07
2.4463e-06
-2.36753e-07
2.4751e-06
-2.25642e-07
2.50649e-06
-2.13877e-07
2.54026e-06
-2.01501e-07
2.57619e-06
-1.88556e-07
2.61405e-06
-1.7508e-07
2.65362e-06
-1.61108e-07
2.69465e-06
-1.46672e-07
2.73692e-06
-1.31803e-07
2.78019e-06
-1.16525e-07
2.82424e-06
-1.00864e-07
2.86886e-06
-8.48392e-08
2.91383e-06
-6.84726e-08
2.95896e-06
-5.17841e-08
3.00405e-06
-3.47933e-08
3.04889e-06
-1.75257e-08
3.0933e-06
3.13702e-06
-2.98088e-08
1.39505e-06
-5.2062e-08
2.12646e-06
-7.16368e-08
2.75521e-06
-9.23581e-08
2.95443e-06
-1.16588e-07
3.04322e-06
-1.41003e-07
3.02405e-06
-1.64402e-07
2.9837e-06
-1.85515e-07
2.92051e-06
-2.04083e-07
2.85607e-06
-2.19992e-07
2.79092e-06
-2.33449e-07
2.72975e-06
-2.44705e-07
2.67279e-06
-2.54065e-07
2.62072e-06
-2.61816e-07
2.57336e-06
-2.6821e-07
2.53058e-06
-2.73456e-07
2.49216e-06
-2.7771e-07
2.45792e-06
-2.81079e-07
2.42774e-06
-2.83626e-07
2.40154e-06
-2.85378e-07
2.37929e-06
-2.86334e-07
2.36099e-06
-2.86479e-07
2.34664e-06
-2.85792e-07
2.33624e-06
-2.8425e-07
2.32979e-06
-2.81835e-07
2.32724e-06
-2.78539e-07
2.32855e-06
-2.7436e-07
2.33363e-06
-2.69306e-07
2.3424e-06
-2.63393e-07
2.35475e-06
-2.56643e-07
2.37055e-06
-2.49088e-07
2.38966e-06
-2.40759e-07
2.41195e-06
-2.31694e-07
2.43723e-06
-2.21933e-07
2.46534e-06
-2.11516e-07
2.49608e-06
-2.00484e-07
2.52923e-06
-1.88876e-07
2.56458e-06
-1.76729e-07
2.60191e-06
-1.64081e-07
2.64097e-06
-1.50963e-07
2.68153e-06
-1.37408e-07
2.72336e-06
-1.23443e-07
2.76622e-06
-1.09096e-07
2.80989e-06
-9.43923e-08
2.85415e-06
-7.93543e-08
2.89879e-06
-6.40057e-08
2.94361e-06
-4.83701e-08
2.98841e-06
-3.24716e-08
3.03299e-06
-1.63394e-08
3.07716e-06
3.12068e-06
-3.10245e-08
1.42608e-06
-5.13869e-08
2.14682e-06
-6.96204e-08
2.77345e-06
-8.87492e-08
2.97356e-06
-1.11899e-07
3.06637e-06
-1.35284e-07
3.04744e-06
-1.57803e-07
3.00622e-06
-1.78042e-07
2.94075e-06
-1.95759e-07
2.87379e-06
-2.10807e-07
2.80596e-06
-2.234e-07
2.74235e-06
-2.33789e-07
2.68318e-06
-2.4229e-07
2.62922e-06
-2.49194e-07
2.58026e-06
-2.54769e-07
2.53616e-06
-2.59234e-07
2.49662e-06
-2.62759e-07
2.46145e-06
-2.65465e-07
2.43044e-06
-2.67427e-07
2.4035e-06
-2.68682e-07
2.38054e-06
-2.69239e-07
2.36154e-06
-2.69085e-07
2.34648e-06
-2.68202e-07
2.33536e-06
-2.66564e-07
2.32815e-06
-2.64152e-07
2.32483e-06
-2.60951e-07
2.32535e-06
-2.56956e-07
2.32964e-06
-2.52168e-07
2.33761e-06
-2.46596e-07
2.34918e-06
-2.40259e-07
2.36421e-06
-2.33179e-07
2.38258e-06
-2.25384e-07
2.40415e-06
-2.16905e-07
2.42876e-06
-2.07777e-07
2.45621e-06
-1.98035e-07
2.48633e-06
-1.87715e-07
2.51891e-06
-1.76852e-07
2.55372e-06
-1.65481e-07
2.59054e-06
-1.53634e-07
2.62912e-06
-1.41343e-07
2.66924e-06
-1.28637e-07
2.71066e-06
-1.15545e-07
2.75313e-06
-1.02092e-07
2.79644e-06
-8.83041e-08
2.84036e-06
-7.42063e-08
2.88469e-06
-5.98238e-08
2.92923e-06
-4.51824e-08
2.97377e-06
-3.03098e-08
3.01812e-06
-1.52382e-08
3.06209e-06
3.10545e-06
-3.20684e-08
1.45815e-06
-5.07388e-08
2.16549e-06
-6.77325e-08
2.79044e-06
-8.54066e-08
2.99123e-06
-1.07535e-07
3.0885e-06
-1.29942e-07
3.06985e-06
-1.5161e-07
3.02789e-06
-1.71e-07
2.96014e-06
-1.87887e-07
2.89067e-06
-2.02102e-07
2.82018e-06
-2.13865e-07
2.75411e-06
-2.23426e-07
2.69275e-06
-2.3111e-07
2.63691e-06
-2.37215e-07
2.58637e-06
-2.4202e-07
2.54096e-06
-2.45753e-07
2.50036e-06
-2.48595e-07
2.46429e-06
-2.5068e-07
2.43253e-06
-2.52093e-07
2.40491e-06
-2.5288e-07
2.38133e-06
-2.53058e-07
2.36172e-06
-2.52621e-07
2.34605e-06
-2.51549e-07
2.33428e-06
-2.49819e-07
2.32642e-06
-2.47407e-07
2.32242e-06
-2.44295e-07
2.32223e-06
-2.40473e-07
2.32581e-06
-2.35936e-07
2.33308e-06
-2.3069e-07
2.34393e-06
-2.24744e-07
2.35826e-06
-2.18118e-07
2.37596e-06
-2.10832e-07
2.39687e-06
-2.02914e-07
2.42084e-06
-1.94392e-07
2.44769e-06
-1.85296e-07
2.47724e-06
-1.75658e-07
2.50927e-06
-1.6551e-07
2.54357e-06
-1.54881e-07
2.57991e-06
-1.43802e-07
2.61805e-06
-1.32301e-07
2.65774e-06
-1.20407e-07
2.69876e-06
-1.08145e-07
2.74087e-06
-9.55422e-08
2.78384e-06
-8.2623e-08
2.82744e-06
-6.94133e-08
2.87148e-06
-5.59395e-08
2.91575e-06
-4.22292e-08
2.96006e-06
-2.83126e-08
3.0042e-06
-1.42238e-08
3.048e-06
3.09122e-06
-3.29064e-08
1.49105e-06
-5.00948e-08
2.18268e-06
-6.59695e-08
2.80631e-06
-8.2357e-08
3.00762e-06
-1.0354e-07
3.10968e-06
-1.25039e-07
3.09134e-06
-1.45899e-07
3.04875e-06
-1.64479e-07
2.97872e-06
-1.80571e-07
2.90677e-06
-1.93989e-07
2.8336e-06
-2.04962e-07
2.76508e-06
-2.13741e-07
2.70153e-06
-2.20658e-07
2.64382e-06
-2.26018e-07
2.59173e-06
-2.30105e-07
2.54505e-06
-2.33158e-07
2.50341e-06
-2.35367e-07
2.4665e-06
-2.36874e-07
2.43404e-06
-2.37774e-07
2.40581e-06
-2.38124e-07
2.38168e-06
-2.37946e-07
2.36154e-06
-2.37238e-07
2.34534e-06
-2.35984e-07
2.33303e-06
-2.34161e-07
2.32459e-06
-2.31743e-07
2.32e-06
-2.2871e-07
2.3192e-06
-2.25045e-07
2.32215e-06
-2.2074e-07
2.32877e-06
-2.15795e-07
2.33898e-06
-2.10215e-07
2.35268e-06
-2.04014e-07
2.36976e-06
-1.97207e-07
2.39006e-06
-1.89816e-07
2.41345e-06
-1.81864e-07
2.43974e-06
-1.73379e-07
2.46875e-06
-1.64386e-07
2.50028e-06
-1.54912e-07
2.5341e-06
-1.44986e-07
2.56998e-06
-1.34633e-07
2.60769e-06
-1.2388e-07
2.64699e-06
-1.12752e-07
2.68763e-06
-1.01274e-07
2.72939e-06
-8.94706e-08
2.77203e-06
-7.73667e-08
2.81534e-06
-6.49881e-08
2.8591e-06
-5.23616e-08
2.90313e-06
-3.95158e-08
2.94721e-06
-2.64825e-08
2.99117e-06
-1.3297e-08
3.03482e-06
3.07793e-06
-3.35289e-08
1.52458e-06
-4.94561e-08
2.1986e-06
-6.43467e-08
2.8212e-06
-7.96418e-08
3.02292e-06
-9.99653e-08
3.13001e-06
-1.20641e-07
3.11202e-06
-1.40741e-07
3.06885e-06
-1.58557e-07
2.99653e-06
-1.73894e-07
2.9221e-06
-1.86558e-07
2.84626e-06
-1.96785e-07
2.77531e-06
-2.04831e-07
2.70957e-06
-2.11033e-07
2.65002e-06
-2.15702e-07
2.5964e-06
-2.19128e-07
2.54847e-06
-2.21555e-07
2.50584e-06
-2.23181e-07
2.46812e-06
-2.24155e-07
2.43501e-06
-2.24582e-07
2.40624e-06
-2.24524e-07
2.38162e-06
-2.24012e-07
2.36103e-06
-2.23047e-07
2.34437e-06
-2.21618e-07
2.3316e-06
-2.19701e-07
2.32268e-06
-2.17269e-07
2.31757e-06
-2.143e-07
2.31623e-06
-2.10773e-07
2.31862e-06
-2.06677e-07
2.32467e-06
-2.02006e-07
2.33431e-06
-1.96761e-07
2.34744e-06
-1.90951e-07
2.36395e-06
-1.84586e-07
2.3837e-06
-1.77683e-07
2.40654e-06
-1.70262e-07
2.43232e-06
-1.62345e-07
2.46083e-06
-1.53953e-07
2.49189e-06
-1.45111e-07
2.52526e-06
-1.35841e-07
2.56071e-06
-1.26167e-07
2.59802e-06
-1.16112e-07
2.63694e-06
-1.057e-07
2.67722e-06
-9.49531e-08
2.71864e-06
-8.38944e-08
2.76097e-06
-7.25483e-08
2.80399e-06
-6.09398e-08
2.8475e-06
-4.90958e-08
2.89128e-06
-3.70451e-08
2.93516e-06
-2.48206e-08
2.97894e-06
-1.24578e-08
3.02245e-06
3.06547e-06
-3.39335e-08
1.55852e-06
-4.88367e-08
2.21351e-06
-6.28871e-08
2.83525e-06
-7.73115e-08
3.03734e-06
-9.68641e-08
3.14956e-06
-1.16812e-07
3.13197e-06
-1.36203e-07
3.08824e-06
-1.53305e-07
3.01364e-06
-1.67929e-07
2.93673e-06
-1.79883e-07
2.85822e-06
-1.89411e-07
2.78484e-06
-1.96775e-07
2.71694e-06
-2.02316e-07
2.65557e-06
-2.06349e-07
2.60043e-06
-2.09169e-07
2.55129e-06
-2.11024e-07
2.50769e-06
-2.12117e-07
2.46922e-06
-2.12605e-07
2.4355e-06
-2.12597e-07
2.40623e-06
-2.12163e-07
2.38119e-06
-2.11338e-07
2.3602e-06
-2.10131e-07
2.34317e-06
-2.08532e-07
2.33e-06
-2.06518e-07
2.32066e-06
-2.04064e-07
2.31511e-06
-2.01143e-07
2.31331e-06
-1.97733e-07
2.31521e-06
-1.9382e-07
2.32076e-06
-1.89392e-07
2.32989e-06
-1.84448e-07
2.3425e-06
-1.78991e-07
2.35849e-06
-1.73028e-07
2.37773e-06
-1.66572e-07
2.40009e-06
-1.59637e-07
2.42538e-06
-1.52241e-07
2.45344e-06
-1.44402e-07
2.48405e-06
-1.36141e-07
2.51699e-06
-1.27478e-07
2.55205e-06
-1.18431e-07
2.58897e-06
-1.09022e-07
2.62753e-06
-9.92704e-08
2.66747e-06
-8.91978e-08
2.70857e-06
-7.88255e-08
2.7506e-06
-6.81761e-08
2.79334e-06
-5.72737e-08
2.83659e-06
-4.61449e-08
2.88015e-06
-3.48182e-08
2.92383e-06
-2.33266e-08
2.96745e-06
-1.17056e-08
3.01083e-06
3.05376e-06
-3.41307e-08
1.59265e-06
-4.82704e-08
2.22765e-06
-6.16289e-08
2.84861e-06
-7.5433e-08
3.05115e-06
-9.4301e-08
3.16843e-06
-1.13627e-07
3.15129e-06
-1.32356e-07
3.10697e-06
-1.48798e-07
3.03008e-06
-1.62748e-07
2.95068e-06
-1.74036e-07
2.8695e-06
-1.8291e-07
2.79371e-06
-1.89641e-07
2.72367e-06
-1.94572e-07
2.6605e-06
-1.98023e-07
2.60388e-06
-2.0029e-07
2.55356e-06
-2.01626e-07
2.50903e-06
-2.02237e-07
2.46983e-06
-2.02282e-07
2.43554e-06
-2.01877e-07
2.40583e-06
-2.01097e-07
2.38041e-06
-1.99983e-07
2.35909e-06
-1.98547e-07
2.34173e-06
-1.96782e-07
2.32824e-06
-1.94669e-07
2.31855e-06
-1.92181e-07
2.31262e-06
-1.89292e-07
2.31042e-06
-1.85977e-07
2.3119e-06
-1.82218e-07
2.317e-06
-1.78002e-07
2.32567e-06
-1.73323e-07
2.33782e-06
-1.68179e-07
2.35334e-06
-1.62575e-07
2.37213e-06
-1.56519e-07
2.39403e-06
-1.50023e-07
2.41889e-06
-1.43099e-07
2.44651e-06
-1.35763e-07
2.47671e-06
-1.28031e-07
2.50926e-06
-1.19919e-07
2.54394e-06
-1.11444e-07
2.5805e-06
-1.02624e-07