/*--------------------------------*- C++ -*----------------------------------*\
| =========                 |                                                 |
| \\      /  F ield         | OpenFOAM: The Open Source CFD Toolbox           |
|  \\    /   O peration     | Version:  2.2.x                                 |
|   \\  /    A nd           | Web:      www.OpenFOAM.org                      |
|    \\/     M anipulation  |                                                 |
\*---------------------------------------------------------------------------*/
FoamFile
{
    version     2.0;
    format      ascii;
    class       volVectorField;
    location    "2000";
    object      U;
}
// * * * * * * * * * * * * * * * * * * * * * * * * * * * * * * * * * * * * * //

dimensions      [0 1 -1 0 0 0 0];

internalField   nonuniform List<vector> 
5000
(
(9.56116 2.68862 -1.28237e-20)
(9.71932 0.561062 0)
(9.69811 0.755453 0)
(9.81278 0.557536 -2.64957e-18)
(9.8852 0.413481 2.24431e-18)
(9.92721 0.319011 1.6738e-18)
(9.95179 0.253697 -1.60469e-18)
(9.96664 0.206143 -1.35943e-18)
(9.97589 0.1706 2.61939e-18)
(9.98189 0.143519 -1.27062e-18)
(9.98593 0.122482 4.54968e-21)
(9.98877 0.105823 4.32102e-21)
(9.99083 0.0923896 0)
(9.99238 0.0813789 0)
(9.99358 0.0722199 -9.42631e-19)
(9.99453 0.0645013 9.43055e-19)
(9.9953 0.0579218 0)
(9.99592 0.0522569 8.42292e-19)
(9.99644 0.0473363 -1.65613e-18)
(9.99687 0.0430287 2.60819e-20)
(9.99724 0.0392312 7.87281e-19)
(9.99756 0.0358622 7.40352e-19)
(9.99783 0.0328558 -7.42652e-19)
(9.99806 0.0301586 0)
(9.99827 0.0277267 -2.69567e-21)
(9.99845 0.0255237 0)
(9.9986 0.0235191 -6.46245e-19)
(9.99874 0.0216872 6.45271e-19)
(9.99886 0.0200065 0)
(9.99897 0.0184583 -3.05846e-19)
(9.99907 0.0170268 5.93215e-21)
(9.99915 0.0156982 2.89401e-19)
(9.99923 0.0144605 4.45693e-21)
(9.9993 0.0133035 0)
(9.99936 0.0122178 0)
(9.99942 0.0111953 0)
(9.99947 0.0102287 4.13229e-21)
(9.99951 0.00931156 0)
(9.99955 0.00843789 3.99788e-21)
(9.99959 0.00760228 0)
(9.99962 0.00679972 0)
(9.99965 0.00602554 3.82787e-21)
(9.99967 0.00527534 0)
(9.99969 0.00454489 1.19125e-19)
(9.99971 0.00383013 -1.18658e-19)
(9.99972 0.003127 0)
(9.99973 0.00243142 5.4277e-20)
(9.99974 0.00173907 -2.53196e-20)
(9.99975 0.0010539 -4.28869e-20)
(9.99975 0.00035723 1.20128e-20)
(8.68535 2.35126 -2.61338e-19)
(8.90142 0.880158 7.86147e-18)
(9.15682 1.0988 5.41059e-18)
(9.45809 0.876014 -3.96821e-18)
(9.63104 0.721518 -2.63423e-18)
(9.73823 0.600603 1.75257e-19)
(9.81011 0.502216 1.8824e-18)
(9.85993 0.422233 -1.54577e-18)
(9.89496 0.357615 9.27825e-20)
(9.91986 0.305408 1.40899e-18)
(9.93779 0.263055 1.48016e-20)
(9.95089 0.228479 -2.35405e-20)
(9.96059 0.20003 1.13194e-18)
(9.9679 0.176412 -1.13297e-18)
(9.9735 0.156618 1.03884e-18)
(9.97785 0.139868 -1.0395e-18)
(9.98128 0.125565 -1.5244e-20)
(9.98403 0.113243 -9.42075e-19)
(9.98626 0.102542 9.27408e-19)
(9.98809 0.0931807 1.3726e-20)
(9.9896 0.0849341 0)
(9.99087 0.0776239 0)
(9.99193 0.071106 3.12588e-21)
(9.99284 0.065263 0)
(9.99361 0.0599983 -7.56812e-19)
(9.99427 0.055232 3.82934e-19)
(9.99484 0.0508974 7.19045e-19)
(9.99533 0.0469384 -3.5473e-19)
(9.99576 0.0433073 3.27874e-19)
(9.99614 0.0399638 -3.22387e-19)
(9.99647 0.0368729 -3.34037e-19)
(9.99676 0.0340048 3.38245e-19)
(9.99701 0.0313333 -4.89609e-21)
(9.99724 0.0288358 -2.85621e-19)
(9.99743 0.0264921 6.03357e-19)
(9.99761 0.0242845 -2.98519e-19)
(9.99777 0.0221972 2.84454e-19)
(9.9979 0.020216 -3.88722e-21)
(9.99802 0.0183279 -2.70425e-19)
(9.99813 0.0165211 0)
(9.99823 0.0147848 1.36149e-19)
(9.99831 0.0131087 -1.56812e-19)
(9.99838 0.0114832 1.16187e-19)
(9.99844 0.00989916 -2.80258e-19)
(9.99849 0.00834754 1.30943e-19)
(9.99853 0.00681954 0)
(9.99856 0.00530627 2.00026e-20)
(9.99858 0.00379762 -3.57282e-20)
(9.99859 0.00229618 3.1628e-20)
(9.9986 0.000773832 -1.30568e-20)
(7.97626 2.08063 -7.70581e-18)
(8.32281 0.99955 6.64307e-18)
(8.69299 1.20023 0)
(9.08189 1.00565 3.79403e-18)
(9.3266 0.881383 -5.79076e-18)
(9.4929 0.769255 4.48987e-18)
(9.61198 0.668295 -1.92305e-18)
(9.6998 0.579771 -2.42679e-20)
(9.76562 0.503537 0)
(9.8154 0.438499 -1.32182e-18)
(9.85326 0.383312 1.28776e-18)
(9.88219 0.336607 5.61871e-20)
(9.90441 0.297082 0)
(9.9216 0.263554 1.11749e-18)
(9.935 0.234996 -1.08364e-18)
(9.94556 0.210541 0)
(9.95397 0.18947 9.80199e-19)
(9.96073 0.171201 -9.49682e-19)
(9.96623 0.155257 -8.99619e-19)
(9.97074 0.141257 9.12614e-19)
(9.97448 0.128889 0)
(9.9776 0.1179 0)
(9.98023 0.108085 2.5027e-20)
(9.98245 0.0992727 -2.4318e-20)
(9.98435 0.0913228 -1.17619e-20)
(9.98597 0.0841179 0)
(9.98737 0.0775594 0)
(9.98858 0.0715642 -3.47355e-19)
(9.98963 0.0660616 3.57441e-19)
(9.99055 0.0609913 -3.13387e-20)
(9.99135 0.0563011 3.34383e-19)
(9.99206 0.0519464 -3.33454e-19)
(9.99268 0.0478878 0)
(9.99322 0.0440912 2.66366e-19)
(9.99371 0.0405265 -3.0398e-19)
(9.99413 0.0371669 0)
(9.99451 0.0339883 2.88625e-19)
(9.99484 0.0309694 -2.87796e-19)
(9.99513 0.0280905 -1.75935e-20)
(9.99539 0.0253337 1.72239e-19)
(9.99561 0.0226824 -1.71303e-19)
(9.99581 0.0201211 1.68498e-20)
(9.99597 0.0176351 1.82224e-19)
(9.99611 0.0152102 -1.48284e-19)
(9.99623 0.0128328 -3.24314e-20)
(9.99633 0.0104894 3.21151e-20)
(9.9964 0.00816648 -1.5969e-20)
(9.99644 0.00584864 3.15879e-20)
(9.99647 0.00353586 0)
(9.99647 0.00118798 3.90429e-20)
(7.41813 1.85021 -6.91895e-18)
(7.8948 1.04075 5.99825e-18)
(8.32937 1.21663 0)
(8.75788 1.05427 -3.69778e-18)
(9.04701 0.958677 5.75419e-18)
(9.25481 0.862369 -2.2852e-18)
(9.4092 0.770401 0)
(9.52724 0.685516 1.62569e-18)
(9.61931 0.608725 -1.41115e-18)
(9.69194 0.540173 0)
(9.74949 0.479618 0)
(9.79516 0.426558 -3.74396e-20)
(9.83141 0.380318 0)
(9.86023 0.340133 -6.73547e-20)
(9.88321 0.305228 3.19548e-20)
(9.90162 0.274865 0)
(9.91646 0.248376 0)
(9.92852 0.225176 0)
(9.93838 0.204768 0)
(9.94652 0.186729 8.08289e-19)
(9.95329 0.170708 -1.69871e-18)
(9.95895 0.156411 7.84601e-19)
(9.96373 0.143592 -7.47008e-20)
(9.96778 0.132047 2.43822e-20)
(9.97124 0.121604 4.43806e-19)
(9.97421 0.112117 -7.81685e-19)
(9.97676 0.103463 3.62785e-19)
(9.97898 0.0955386 0)
(9.9809 0.0882537 -3.37567e-19)
(9.98259 0.0815315 2.782e-20)
(9.98406 0.0753056 6.51797e-19)
(9.98535 0.0695182 -6.37717e-19)
(9.98649 0.064119 6.24438e-19)
(9.98749 0.0590635 -6.30851e-19)
(9.98837 0.0543126 3.02508e-19)
(9.98916 0.0498313 0)
(9.98985 0.0455883 2.87224e-19)
(9.99046 0.0415553 3.15841e-20)
(9.99099 0.0377067 -3.51916e-21)
(9.99146 0.0340188 -1.74703e-19)
(9.99188 0.0304696 -1.02514e-19)
(9.99223 0.0270386 3.33806e-20)
(9.99254 0.0237061 -1.31854e-19)
(9.9928 0.0204535 3.2671e-19)
(9.99301 0.0172624 -9.73304e-20)
(9.99318 0.0141149 3.17438e-20)
(9.99331 0.010993 6.3235e-20)
(9.99339 0.00787624 -1.04822e-22)
(9.99344 0.00476154 1.54156e-20)
(9.99343 0.00159448 -1.30049e-20)
(6.92096 1.63982 -6.00875e-18)
(7.53237 1.02826 -1.19227e-19)
(8.0225 1.1853 1.52888e-19)
(8.4784 1.0562 5.18737e-21)
(8.79952 0.985776 5.54348e-18)
(9.0369 0.906553 -4.36522e-18)
(9.21692 0.827498 1.81264e-18)
(9.35766 0.751527 -5.0169e-20)
(9.47029 0.68004 -4.44395e-20)
(9.56172 0.613789 0)
(9.63641 0.553187 0)
(9.69751 0.498361 0)
(9.74744 0.449199 -6.54588e-20)
(9.78816 0.405405 3.30882e-20)
(9.82135 0.366555 -3.19113e-20)
(9.84843 0.33216 9.56235e-19)
(9.87058 0.30171 -1.88287e-18)
(9.88878 0.274716 9.82613e-19)
(9.9038 0.250728 5.45135e-20)
(9.91627 0.229344 -2.58784e-20)
(9.9267 0.210216 -8.2204e-19)
(9.93547 0.19304 9.22117e-19)
(9.94289 0.17756 4.95603e-20)
(9.9492 0.163555 7.56417e-19)
(9.9546 0.150835 -1.11467e-19)
(9.95925 0.139241 -6.89801e-19)
(9.96326 0.128633 3.50318e-19)
(9.96673 0.118893 -3.06691e-19)
(9.96976 0.109919 3.34124e-19)
(9.97241 0.10162 -3.74369e-19)
(9.97472 0.0939206 -3.19633e-19)
(9.97676 0.0867519 3.18849e-19)
(9.97855 0.0800545 -3.84685e-20)
(9.98014 0.0737755 -2.6271e-19)
(9.98154 0.0678681 5.95071e-19)
(9.98277 0.0622905 -2.94303e-19)
(9.98386 0.0570048 7.14092e-20)
(9.98483 0.0519768 2.44909e-19)
(9.98568 0.0471752 -2.79382e-19)
(9.98642 0.0425712 0)
(9.98707 0.0381378 0)
(9.98764 0.0338497 -3.33232e-20)
(9.98812 0.029683 9.77892e-20)
(9.98853 0.0256143 -1.62708e-19)
(9.98887 0.0216212 -6.39397e-20)
(9.98913 0.0176811 9.49128e-24)
(9.98933 0.0137721 -6.32149e-20)
(9.98947 0.00986881 -3.08311e-20)
(9.98953 0.00596491 -3.11364e-20)
(9.98953 0.00199039 -5.13055e-20)
(6.46223 1.43652 1.03785e-17)
(7.20858 0.971582 -4.47944e-18)
(7.75168 1.11781 -1.3512e-19)
(8.2309 1.02256 3.18308e-18)
(8.57769 0.975674 -7.84069e-21)
(8.83763 0.914415 -2.0827e-18)
(9.03707 0.850142 0)
(9.19511 0.785736 -1.44369e-18)
(9.32367 0.722854 2.58545e-18)
(9.43006 0.662571 -1.19632e-18)
(9.51893 0.605642 6.66081e-20)
(9.59341 0.552571 -1.04037e-18)
(9.65577 0.503645 1.03111e-18)
(9.70784 0.458954 0)
(9.75119 0.418423 0)
(9.78722 0.381847 0)
(9.81714 0.348932 -5.51787e-20)
(9.84203 0.319344 -5.57582e-20)
(9.86279 0.292737 -5.41826e-20)
(9.88017 0.268777 1.03814e-19)
(9.8948 0.247154 0)
(9.90717 0.227592 -4.98231e-20)
(9.91768 0.209842 -7.5894e-19)
(9.92665 0.193689 7.57954e-19)
(9.93436 0.178944 8.7391e-22)
(9.941 0.165442 0)
(9.94675 0.153041 3.87167e-19)
(9.95175 0.141614 -4.99431e-20)
(9.95611 0.131052 -6.76813e-21)
(9.95992 0.12126 -2.87298e-19)
(9.96327 0.112152 3.15084e-19)
(9.96622 0.103655 -3.91683e-19)
(9.96881 0.0957016 1.14174e-19)
(9.97111 0.0882335 7.43844e-20)
(9.97314 0.0811976 7.3026e-20)
(9.97493 0.0745465 -7.17411e-20)
(9.97652 0.0682372 -7.1229e-20)
(9.97792 0.0622302 -2.77264e-19)
(9.97916 0.0564896 3.34907e-21)
(9.98024 0.0509819 2.72152e-19)
(9.98119 0.0456757 -6.63606e-20)
(9.98201 0.0405417 0)
(9.98272 0.0355515 6.47575e-20)
(9.98331 0.0306779 -1.28945e-19)
(9.98381 0.0258943 6.32393e-20)
(9.9842 0.0211742 0)
(9.98449 0.0164914 -3.42572e-22)
(9.98469 0.0118163 9.25608e-20)
(9.98479 0.00713955 -3.07467e-20)
(9.98478 0.00237465 5.12571e-20)
(6.04717 1.23935 4.59865e-18)
(6.92118 0.886504 0)
(7.51499 1.0266 0)
(8.01421 0.962926 2.88236e-18)
(8.38104 0.937324 -4.60564e-18)
(8.65779 0.89394 2.0315e-18)
(8.87159 0.845108 9.39037e-20)
(9.04247 0.793563 8.0674e-20)
(9.18294 0.741152 7.16752e-20)
(9.30077 0.689129 0)
(9.40081 0.638425 1.01232e-18)
(9.48625 0.58974 -1.95262e-18)
(9.55927 0.543598 1.99861e-18)
(9.62153 0.500359 -8.6755e-19)
(9.67441 0.460224 0)
(9.71916 0.42325 -5.29384e-20)
(9.75693 0.389371 8.443e-19)
(9.78878 0.358434 -7.91679e-19)
(9.81564 0.330234 0)
(9.83834 0.304536 -5.05919e-20)
(9.85759 0.281106 7.6869e-19)
(9.87398 0.259713 -7.68524e-19)
(9.88797 0.240146 0)
(9.89999 0.222213 -7.17394e-19)
(9.91034 0.205738 7.61502e-19)
(9.91929 0.190568 -4.27882e-20)
(9.92707 0.176564 -4.27756e-20)
(9.93385 0.163604 0)
(9.93978 0.151578 0)
(9.94498 0.14039 7.8753e-20)
(9.94955 0.129952 3.86141e-19)
(9.95358 0.120188 -5.34388e-19)
(9.95714 0.111029 -7.04818e-20)
(9.96029 0.102411 -6.93852e-20)
(9.96308 0.0942776 2.90401e-19)
(9.96555 0.0865782 1.42008e-19)
(9.96774 0.0792655 3.47092e-19)
(9.96967 0.0722964 -2.76906e-19)
(9.97137 0.065631 0)
(9.97287 0.0592321 -6.64569e-20)
(9.97419 0.0530648 1.33095e-19)
(9.97533 0.0470959 -6.47947e-20)
(9.97631 0.0412935 1.29624e-19)
(9.97714 0.0356268 1.26514e-19)
(9.97782 0.0300655 -1.26654e-19)
(9.97837 0.0245794 6.18699e-20)
(9.97878 0.0191386 -6.13295e-20)
(9.97907 0.0137092 -1.22283e-19)
(9.97922 0.00827937 -6.04323e-20)
(9.97923 0.00274729 0)
(5.67595 1.053 -4.24502e-18)
(6.66838 0.789635 3.25925e-18)
(7.31296 0.924474 -3.10203e-18)
(7.82996 0.88784 2.72513e-18)
(8.21156 0.879997 -2.35313e-18)
(8.49973 0.852901 1.66728e-18)
(8.72318 0.818775 -9.75206e-20)
(8.90272 0.780106 -9.31539e-21)
(9.05139 0.738804 -1.38827e-19)
(9.17727 0.696182 5.989e-20)
(9.28547 0.653223 -6.15571e-20)
(9.37926 0.610701 0)
(9.4608 0.569244 -8.58232e-19)
(9.53161 0.529355 8.38985e-19)
(9.59289 0.491416 -4.94999e-20)
(9.64568 0.455683 -7.45972e-19)
(9.69097 0.422286 8.97523e-19)
(9.7297 0.391252 7.21008e-19)
(9.76277 0.362521 -8.19026e-19)
(9.79102 0.335984 -4.58818e-20)
(9.81518 0.311496 -7.30025e-19)
(9.83589 0.288898 7.74954e-19)
(9.8537 0.268033 0)
(9.86907 0.248747 -6.88485e-19)
(9.88238 0.230894 1.33856e-20)
(9.89395 0.214343 7.58189e-19)
(9.90403 0.198972 0)
(9.91285 0.184669 0)
(9.92059 0.171333 -3.8909e-20)
(9.9274 0.158873 -7.80759e-20)
(9.9334 0.147206 -7.65994e-20)
(9.9387 0.136256 -2.95728e-19)
(9.9434 0.125955 2.95258e-19)
(9.94756 0.116238 -2.85805e-19)
(9.95125 0.107049 2.13933e-19)
(9.95452 0.098334 -1.39241e-19)
(9.95742 0.0900447 -2.73642e-19)
(9.95999 0.0821355 3.29556e-21)
(9.96226 0.074564 3.03989e-21)
(9.96426 0.0672902 5.24794e-19)
(9.96602 0.0602764 -1.95457e-19)
(9.96754 0.0534865 -1.91951e-19)
(9.96886 0.0468858 1.27893e-19)
(9.96997 0.0404404 0)
(9.9709 0.0341168 -2.47481e-19)
(9.97165 0.0278816 6.14096e-20)
(9.97222 0.0217017 6.11843e-20)
(9.97262 0.0155391 3.05506e-20)
(9.97284 0.00937915 9.03292e-20)
(9.97289 0.00310961 0)
(5.34285 0.88277 -2.38063e-19)
(6.446 0.693504 6.10454e-18)
(7.14394 0.821908 -7.85789e-20)
(7.67825 0.807079 -4.62118e-18)
(8.07044 0.81283 -2.42388e-20)
(8.36551 0.799279 3.03844e-18)
(8.59448 0.777917 0)
(8.77898 0.750958 -1.20869e-18)
(8.93244 0.720262 1.06249e-18)
(9.06325 0.687095 8.48338e-19)
(9.17672 0.652404 -8.45724e-19)
(9.27622 0.616939 -2.40088e-20)
(9.36394 0.581331 -2.74473e-20)
(9.44133 0.546123 -4.92299e-20)
(9.50943 0.511775 4.82075e-20)
(9.56911 0.478654 -7.27465e-19)
(9.62113 0.447028 7.03457e-19)
(9.66628 0.417066 0)
(9.70534 0.388847 7.47607e-19)
(9.73907 0.362379 -7.02108e-19)
(9.76819 0.337619 -6.41729e-19)
(9.79337 0.31449 6.41943e-19)
(9.81518 0.2929 0)
(9.83412 0.272746 0)
(9.85061 0.253926 0)
(9.86501 0.236337 -4.05018e-20)
(9.87763 0.219884 0)
(9.88872 0.204477 6.11703e-19)
(9.89848 0.190029 -5.73271e-19)
(9.9071 0.17646 -3.67959e-20)
(9.91473 0.163698 2.91309e-19)
(9.92149 0.151672 -3.26808e-19)
(9.92748 0.140318 -2.82364e-19)
(9.93281 0.129577 -3.069e-20)
(9.93754 0.119392 2.77807e-19)
(9.94175 0.109711 6.85736e-20)
(9.94549 0.100487 -3.34088e-19)
(9.94881 0.0916717 2.66029e-19)
(9.95175 0.0832231 0)
(9.95435 0.0750997 -6.49037e-20)
(9.95663 0.0672621 0)
(9.95862 0.0596723 0)
(9.96034 0.0522935 6.26583e-20)
(9.96181 0.0450895 -6.11635e-20)
(9.96304 0.0380244 -6.03033e-20)
(9.96403 0.0310622 1.81345e-19)
(9.96481 0.024167 -5.95798e-20)
(9.96536 0.0172972 8.88812e-20)
(9.9657 0.0104347 -8.83725e-20)
(9.96581 0.00346428 0)
(5.02847 0.731242 6.54214e-18)
(6.24041 0.60601 -7.10584e-20)
(6.99532 0.727229 7.91368e-20)
(7.54949 0.72867 4.04834e-18)
(7.94994 0.743739 -3.27742e-18)
(8.24916 0.740386 2.78367e-18)
(8.48091 0.729184 -2.29768e-18)
(8.66772 0.712026 0)
(8.82345 0.690627 1.30253e-20)
(8.95675 0.666126 -1.61111e-18)
(9.0731 0.63937 1.48763e-18)
(9.17602 0.611031 2.32738e-20)
(9.26777 0.581676 -7.13417e-19)
(9.34981 0.551814 1.32965e-18)
(9.42309 0.5219 -1.30953e-18)
(9.48833 0.492333 6.41029e-19)
(9.54613 0.463449 -2.08918e-20)
(9.59707 0.435506 -6.37849e-19)
(9.64177 0.408685 1.27483e-18)
(9.68087 0.383098 -5.96327e-19)
(9.71501 0.358795 -6.64763e-19)
(9.74481 0.335784 6.27008e-19)
(9.77084 0.31404 0)
(9.79363 0.293519 9.27257e-21)
(9.81361 0.274167 5.98161e-19)
(9.83118 0.25592 -1.19024e-18)
(9.84666 0.238715 5.91864e-19)
(9.86033 0.222486 0)
(9.87243 0.207169 0)
(9.88315 0.192701 -5.33509e-19)
(9.89268 0.179021 1.09738e-18)
(9.90116 0.16607 -7.92003e-19)
(9.9087 0.153794 2.73228e-19)
(9.91543 0.142139 5.0388e-20)
(9.92142 0.131053 -2.62986e-19)
(9.92677 0.120488 2.62955e-19)
(9.93153 0.110397 0)
(9.93577 0.100737 0)
(9.93953 0.0914642 0)
(9.94286 0.0825379 -2.48657e-19)
(9.9458 0.0739183 2.63667e-19)
(9.94837 0.0655669 1.21962e-19)
(9.9506 0.0574457 -1.36791e-19)
(9.95252 0.0495172 -7.42274e-20)
(9.95413 0.041744 1.04864e-19)
(9.95546 0.0340881 -4.4945e-20)
(9.95651 0.0265114 4.46307e-20)
(9.95728 0.0189695 -7.35466e-20)
(9.95778 0.0114398 7.3117e-20)
(9.95801 0.00381119 1.21783e-20)
(4.85037 0.641574 1.62549e-18)
(6.12826 0.557868 -2.1831e-20)
(6.91685 0.678693 -3.50516e-20)
(7.4825 0.684703 4.69604e-20)
(7.88528 0.704269 -2.59337e-20)
(8.1844 0.704778 7.44771e-19)
(8.41533 0.698017 -6.47237e-19)
(8.60129 0.685361 -5.43138e-19)
(8.75635 0.668496 4.61133e-19)
(8.88932 0.648469 -4.67186e-19)
(9.00576 0.626043 8.38219e-19)
(9.10928 0.601804 -3.95145e-19)
(9.20218 0.576249 -1.05722e-20)
(9.28593 0.549823 3.91947e-19)
(9.36147 0.522936 -7.24438e-19)
(9.42944 0.495967 3.69329e-19)
(9.49032 0.469254 3.5301e-19)
(9.54457 0.443078 -3.73102e-19)
(9.59267 0.417658 -3.46736e-19)
(9.63515 0.39315 3.25333e-19)
(9.67256 0.369648 -3.3988e-19)
(9.70548 0.347202 3.39219e-21)
(9.73444 0.325822 3.35182e-19)
(9.75995 0.305498 3.16515e-19)
(9.78244 0.286198 -3.26002e-19)
(9.80232 0.267886 -1.95574e-20)
(9.81993 0.250516 1.92697e-20)
(9.83555 0.234039 1.89775e-20)
(9.84943 0.218407 0)
(9.86179 0.203569 9.47947e-21)
(9.87281 0.189475 3.67284e-20)
(9.88265 0.176076 0)
(9.89143 0.163324 0)
(9.89929 0.151171 -3.4943e-20)
(9.90631 0.139572 -1.36845e-19)
(9.91259 0.128483 1.69604e-19)
(9.91819 0.11786 0)
(9.92319 0.107662 0)
(9.92764 0.0978472 -1.60775e-19)
(9.93158 0.0883768 1.28056e-19)
(9.93506 0.0792117 -7.84763e-20)
(9.93811 0.0703138 3.15345e-20)
(9.94077 0.0616453 1.06823e-19)
(9.94305 0.0531682 -4.54354e-20)
(9.94498 0.0448448 1.50644e-20)
(9.94657 0.0366361 1.44287e-20)
(9.94782 0.0285027 4.37798e-20)
(9.94875 0.020399 -1.46059e-20)
(9.94935 0.0123001 0)
(9.94962 0.00409823 -2.37993e-20)
(4.70896 0.577554 0)
(6.03118 0.527355 1.35873e-18)
(6.85342 0.641615 -9.85064e-19)
(7.42929 0.65053 -3.07781e-20)
(7.83469 0.672725 2.63181e-20)
(8.13396 0.675644 4.20395e-20)
(8.36439 0.671831 -1.67987e-20)
(8.54972 0.662236 5.12447e-19)
(8.7042 0.648536 -8.94132e-19)
(8.83673 0.631705 4.3817e-19)
(8.95297 0.612442 3.97768e-19)
(9.05657 0.591276 -3.72264e-19)
(9.1499 0.568647 4.49676e-20)
(9.23447 0.544947 -3.91699e-19)
(9.31125 0.520545 3.40161e-19)
(9.38086 0.49579 3.35962e-19)
(9.44371 0.471005 1.98116e-20)
(9.5002 0.446475 -3.09865e-19)
(9.55069 0.422431 0)
(9.59563 0.399053 2.09825e-20)
(9.63549 0.37646 3.2314e-19)
(9.67079 0.354728 -2.8321e-19)
(9.70202 0.333892 0)
(9.72967 0.313961 -3.51728e-19)
(9.75417 0.294925 3.12145e-19)
(9.77592 0.276762 3.24634e-19)
(9.79526 0.259443 -3.23139e-19)
(9.81249 0.242931 -1.67181e-19)
(9.82787 0.227191 1.54885e-21)
(9.8416 0.212182 1.09745e-19)
(9.85389 0.197864 -1.80648e-20)
(9.86489 0.184197 1.39481e-19)
(9.87475 0.171138 -2.76154e-19)
(9.88359 0.158649 1.53884e-19)
(9.89151 0.146687 3.30823e-20)
(9.8986 0.135213 -6.59724e-20)
(9.90495 0.124188 0)
(9.91063 0.113573 1.59292e-19)
(9.91568 0.103329 -9.49865e-20)
(9.92017 0.0934196 -3.08514e-20)
(9.92414 0.0838066 3.04558e-20)
(9.92763 0.074453 3.06428e-20)
(9.93066 0.0653216 -3.02634e-20)
(9.93327 0.056375 2.93834e-20)
(9.93547 0.0475753 -1.16653e-19)
(9.93728 0.0388835 -2.86342e-20)
(9.9387 0.0302602 -2.89764e-20)
(9.93975 0.0216596 -4.22546e-20)
(9.94042 0.0130576 4.18827e-20)
(9.9407 0.00433956 -2.30054e-20)
(4.57304 0.527493 -3.11889e-18)
(5.93736 0.506007 1.12251e-18)
(6.7953 0.610398 -1.11392e-18)
(7.38241 0.621976 -1.97706e-20)
(7.79139 0.644921 7.53398e-19)
(8.09131 0.649224 -2.5186e-21)
(8.32155 0.647392 -5.31731e-19)
(8.50638 0.640062 4.89938e-19)
(8.66027 0.628842 -4.72857e-19)
(8.79223 0.614613 3.74369e-19)
(8.90801 0.598004 -4.18917e-19)
(9.01134 0.57948 6.58278e-19)
(9.10467 0.559425 -3.55844e-19)
(9.18956 0.53818 2.09668e-20)
(9.26701 0.516068 2.80241e-19)
(9.33764 0.493402 -3.13923e-19)
(9.40185 0.47048 -2.00423e-20)
(9.45997 0.447576 3.09997e-19)
(9.5123 0.424926 -3.83575e-20)
(9.55919 0.402722 3.65746e-20)
(9.60105 0.381104 -1.34116e-21)
(9.63832 0.360167 -3.44084e-19)
(9.67147 0.339966 0)
(9.70095 0.32053 3.8218e-20)
(9.72719 0.301862 0)
(9.75057 0.283957 -2.92135e-19)
(9.77144 0.266797 2.55518e-19)
(9.7901 0.250358 3.52008e-20)
(9.8068 0.234615 0)
(9.82177 0.219536 3.54037e-20)
(9.83521 0.205092 -3.38922e-20)
(9.84727 0.191247 0)
(9.85811 0.17797 1.66214e-19)
(9.86786 0.165225 -1.19944e-21)
(9.87661 0.152976 -2.93276e-19)
(9.88447 0.14119 9.80021e-20)
(9.89152 0.12983 6.25961e-20)
(9.89782 0.118862 9.29045e-20)
(9.90345 0.108249 -1.84854e-19)
(9.90846 0.0979567 -2.95e-20)
(9.91289 0.0879493 -3.03724e-20)
(9.91679 0.0781911 0)
(9.92018 0.0686461 5.85995e-20)
(9.92309 0.0592777 -1.45565e-19)
(9.92555 0.0500486 5.86964e-20)
(9.92756 0.0409203 1.42277e-19)
(9.92915 0.0318537 -1.12316e-19)
(9.9303 0.0228036 8.4406e-20)
(9.93103 0.0137475 -5.59565e-20)
(9.9313 0.00455555 4.6776e-20)
(4.43383 0.486015 -1.51887e-18)
(5.84069 0.488298 -1.17338e-18)
(6.73562 0.583235 9.8228e-19)
(7.33605 0.597778 0)
(7.74989 0.620418 0)
(8.0512 0.625458 5.82712e-19)
(8.28165 0.624866 7.39298e-20)
(8.46619 0.61913 -9.37942e-19)
(8.61957 0.609775 8.37542e-19)
(8.75094 0.597596 -3.53665e-19)
(8.86617 0.583153 3.99744e-19)
(8.96909 0.566853 -2.87168e-19)
(9.0622 0.549024 0)
(9.14715 0.529956 0)
(9.22496 0.509924 2.13538e-21)
(9.29629 0.4892 2.96556e-19)
(9.36154 0.46805 -3.29158e-19)
(9.42098 0.446728 0)
(9.47486 0.425465 -2.54321e-19)
(9.52345 0.404455 2.89638e-19)
(9.56709 0.383851 -3.54758e-20)
(9.60616 0.363762 0)
(9.64108 0.344262 -2.8726e-19)
(9.67226 0.325394 2.86806e-19)
(9.70013 0.307176 0)
(9.72506 0.289613 3.45093e-20)
(9.74738 0.2727 6.96734e-20)
(9.7674 0.256423 -3.50731e-20)
(9.78538 0.240765 -1.69342e-19)
(9.80154 0.225704 1.05959e-21)
(9.81609 0.211217 3.00114e-19)
(9.82919 0.197278 -6.72758e-20)
(9.841 0.183859 9.64427e-20)
(9.85163 0.170933 -1.03035e-21)
(9.86121 0.158469 -1.27158e-19)
(9.86982 0.146438 -6.1279e-20)
(9.87757 0.134807 6.14875e-20)
(9.88451 0.123545 0)
(9.89072 0.112621 1.367e-21)
(9.89625 0.102 6.01763e-20)
(9.90115 0.0916505 4.67735e-22)
(9.90546 0.0815379 -5.83525e-20)
(9.90921 0.0716277 0)
(9.91243 0.0618848 5.68173e-20)
(9.91515 0.0522727 5.62223e-20)
(9.91738 0.0427537 -8.42278e-20)
(9.91913 0.0332898 5.59197e-20)
(9.9204 0.023836 1.37606e-20)
(9.92119 0.0143723 1.36178e-20)
(9.92148 0.00475046 0)
(4.292 0.450202 -1.4944e-18)
(5.73959 0.471619 5.4766e-20)
(6.67179 0.558703 1.99318e-18)
(7.28753 0.576417 -7.93134e-19)
(7.70759 0.598375 -6.86919e-19)
(8.01123 0.603902 5.79781e-19)
(8.24258 0.604109 4.45374e-19)
(8.4273 0.599495 -4.41914e-19)
(8.58048 0.591525 0)
(8.71147 0.580932 0)
(8.82627 0.568222 4.05218e-20)
(8.92879 0.553752 3.80845e-20)
(9.02163 0.537804 3.63407e-20)
(9.10651 0.52062 0)
(9.18451 0.502432 3.20049e-19)
(9.25632 0.483469 -2.78028e-19)
(9.32235 0.463963 3.55701e-20)
(9.38285 0.444142 3.35624e-20)
(9.43804 0.424223 3.35473e-20)
(9.48812 0.404395 2.39928e-19)
(9.53336 0.384816 -2.73463e-19)
(9.57408 0.365606 -2.74371e-19)
(9.61065 0.346851 7.32727e-22)
(9.64344 0.328606 5.45463e-19)
(9.67286 0.310901 -1.13895e-21)
(9.69925 0.293753 -3.04462e-19)
(9.72297 0.277162 -3.33519e-19)
(9.74431 0.261126 6.66004e-20)
(9.76353 0.245633 3.61344e-19)
(9.78085 0.230671 0)
(9.79649 0.216221 -1.28232e-19)
(9.81061 0.202266 6.30826e-20)
(9.82337 0.188782 -1.87426e-19)
(9.83489 0.175749 8.62223e-22)
(9.84528 0.16314 2.46097e-19)
(9.85466 0.150931 -2.43288e-19)
(9.8631 0.139094 1.20654e-19)
(9.87068 0.127601 -5.86894e-20)
(9.87748 0.116424 -5.77186e-20)
(9.88353 0.105531 6.82099e-22)
(9.88891 0.0948936 1.73436e-19)
(9.89364 0.0844787 -5.0106e-22)
(9.89777 0.0742539 5.69206e-20)
(9.90132 0.0641854 -2.36691e-22)
(9.90431 0.0542384 -1.6614e-19)
(9.90677 0.0443763 5.47725e-20)
(9.90869 0.0345619 -2.70661e-20)
(9.91009 0.0247511 2.69039e-20)
(9.91095 0.0149267 0)
(9.91126 0.00492372 0)
(4.15115 0.418717 0)
(5.63598 0.455328 -1.27142e-18)
(6.60468 0.536212 -1.24282e-19)
(7.23713 0.556924 8.41681e-19)
(7.66448 0.578073 6.4874e-19)
(7.97131 0.58398 8.48694e-21)
(8.20419 0.584738 7.26333e-21)
(8.38957 0.580953 -3.68311e-19)
(8.54292 0.574039 4.58057e-20)
(8.67379 0.564689 0)
(8.78832 0.553371 -7.93011e-20)
(8.89054 0.540406 -3.01082e-19)
(8.98313 0.526037 2.45078e-19)
(9.06787 0.51047 3.07465e-19)
(9.14593 0.493895 -3.03581e-20)
(9.21804 0.476506 -2.93652e-19)
(9.28464 0.458499 0)
(9.34599 0.440075 -3.33815e-20)
(9.40225 0.421431 2.26619e-19)
(9.45361 0.402747 -5.19711e-19)
(9.50026 0.38418 2.9342e-19)
(9.54246 0.365856 -3.17802e-20)
(9.58053 0.347868 -2.6004e-19)
(9.61482 0.330281 2.59897e-19)
(9.64568 0.313135 2.58484e-19)
(9.67346 0.296453 -5.15264e-19)
(9.6985 0.280246 3.36408e-20)
(9.72109 0.264515 4.44053e-19)
(9.74149 0.249257 -5.69401e-19)
(9.75993 0.234463 1.89589e-19)
(9.77662 0.220123 -6.10137e-20)
(9.79173 0.206222 0)
(9.80541 0.192745 1.21804e-19)
(9.81779 0.179673 0)
(9.82899 0.166988 -1.77837e-19)
(9.83911 0.154667 1.76726e-19)
(9.84824 0.142687 0)
(9.85646 0.131024 1.15696e-19)
(9.86383 0.119652 5.65174e-20)
(9.87042 0.108544 1.69008e-19)
(9.87627 0.0976731 -1.68427e-19)
(9.88143 0.0870085 -5.11965e-22)
(9.88594 0.0765201 5.56124e-20)
(9.88982 0.0661759 5.38491e-20)
(9.89309 0.0559427 -5.33637e-20)
(9.89578 0.0457851 0)
(9.89788 0.0356677 0)
(9.89942 0.0255468 5.20316e-20)
(9.90036 0.0154089 5.16334e-20)
(9.90071 0.00507536 -8.64863e-20)
(4.01364 0.390725 -2.78446e-18)
(5.53156 0.439271 1.31264e-19)
(6.53534 0.515421 0)
(7.18542 0.538749 -1.78376e-19)
(7.62088 0.55908 -7.36747e-20)
(7.93157 0.565298 6.34305e-20)
(8.16649 0.566449 0)
(8.35293 0.563299 3.03658e-19)
(8.50676 0.557212 -3.58983e-19)
(8.63776 0.548855 3.94981e-20)
(8.7522 0.538669 -2.63665e-19)
(8.85422 0.526948 2.43687e-19)
(8.9466 0.513908 0)
(9.03119 0.499722 -3.32794e-20)
(9.10925 0.484552 6.29807e-20)
(9.18154 0.468557 6.19748e-20)
(9.24854 0.451903 0)
(9.31054 0.434764 -2.97757e-20)
(9.36769 0.417314 0)
(9.42012 0.399721 2.45773e-19)
(9.468 0.382137 -2.7572e-19)
(9.51152 0.364687 -2.15201e-19)
(9.55096 0.34747 2.4689e-19)
(9.58661 0.330558 2.16806e-19)
(9.61881 0.313999 -1.86482e-19)
(9.64789 0.297821 0)
(9.67417 0.282041 -2.44889e-19)
(9.69794 0.266667 1.84515e-19)
(9.71946 0.251699 -3.01682e-19)
(9.73896 0.237134 3.02803e-19)
(9.75665 0.222965 1.19648e-19)
(9.7727 0.209183 0)
(9.78727 0.195775 -1.77295e-19)
(9.80048 0.18273 5.95504e-20)
(9.81246 0.17003 1.74123e-19)
(9.8233 0.157658 -1.73048e-19)
(9.83311 0.145596 -5.59635e-20)
(9.84195 0.133821 -5.70178e-20)
(9.84989 0.122312 -1.11417e-19)
(9.857 0.111044 -1.43511e-21)
(9.86333 0.099993 0)
(9.86891 0.0891308 -5.34869e-20)
(9.87379 0.0784294 5.35692e-20)
(9.878 0.0678588 -5.39796e-20)
(9.88156 0.0573876 -5.21209e-20)
(9.88448 0.0469822 5.23376e-20)
(9.88678 0.0366087 -5.12435e-20)
(9.88845 0.0262246 -3.91411e-20)
(9.88949 0.0158195 -7.52165e-21)
(9.88988 0.00520599 8.11134e-20)
(3.88066 0.365595 0)
(5.4274 0.423387 0)
(6.46433 0.49602 1.69231e-18)
(7.13257 0.521525 1.03619e-19)
(7.57685 0.541101 -1.06471e-18)
(7.89197 0.547573 4.33988e-19)
(8.12935 0.549012 -8.6197e-19)
(8.3172 0.546359 3.80757e-19)
(8.47179 0.540933 -4.3978e-20)
(8.60313 0.533381 -3.51452e-19)
(8.71765 0.524126 6.05312e-19)
(8.8196 0.513442 -2.3313e-19)
(8.91184 0.501524 2.5521e-19)
(8.99632 0.488523 -2.42863e-19)
(9.07434 0.474575 -3.06343e-20)
(9.14673 0.459812 -3.00974e-20)
(9.21403 0.444373 -2.8143e-20)
(9.27652 0.428406 2.96849e-20)
(9.33438 0.412065 0)
(9.38773 0.395502 -2.3224e-19)
(9.43667 0.378859 2.33652e-19)
(9.48137 0.362261 2.33928e-19)
(9.52204 0.345808 5.27726e-22)
(9.55895 0.329575 -2.04594e-19)
(9.59239 0.313617 -2.95209e-19)
(9.62268 0.297968 2.34876e-19)
(9.65012 0.282649 -5.73928e-20)
(9.67499 0.267671 2.39215e-21)
(9.69757 0.253037 5.93661e-20)
(9.71807 0.23875 2.31384e-19)
(9.7367 0.224804 -2.893e-19)
(9.75365 0.211195 -1.14274e-19)
(9.76906 0.197914 1.13849e-19)
(9.78307 0.184951 1.12846e-19)
(9.79579 0.172295 0)
(9.80733 0.15993 0)
(9.81779 0.14784 -5.4056e-20)
(9.82723 0.13601 1.09449e-19)
(9.83573 0.124418 5.49093e-20)
(9.84335 0.113043 -5.44145e-20)
(9.85014 0.101863 0)
(9.85614 0.090854 7.60756e-22)
(9.8614 0.0799888 5.23993e-20)
(9.86593 0.0692401 0)
(9.86977 0.0585784 -5.13764e-20)
(9.87293 0.0479719 5.10811e-20)
(9.87542 0.0373885 7.59303e-20)
(9.87724 0.0267871 2.5132e-20)
(9.87838 0.0161603 -9.96787e-20)
(9.87882 0.00531629 -8.26211e-20)
(3.75309 0.342848 -1.41573e-20)
(5.32437 0.40768 1.88299e-18)
(6.39213 0.477737 1.49648e-18)
(7.07874 0.504974 -1.32947e-18)
(7.5324 0.523889 0)
(7.85247 0.530565 -4.69493e-19)
(8.09271 0.53222 -5.9851e-21)
(8.28226 0.529967 4.12504e-20)
(8.43785 0.52508 3.59883e-19)
(8.56974 0.518194 2.95807e-19)
(8.68451 0.509716 -3.36846e-19)
(8.78651 0.499907 -3.27228e-20)
(8.87871 0.488945 0)
(8.96311 0.476965 2.80406e-20)
(9.0411 0.464084 -2.25944e-19)
(9.11356 0.450412 2.19584e-19)
(9.18106 0.436064 2.81359e-20)
(9.24394 0.421165 0)
(9.30239 0.405849 0)
(9.35649 0.390252 1.92855e-19)
(9.40636 0.374506 -1.91094e-19)
(9.45209 0.35873 -2.69642e-20)
(9.49388 0.343024 0)
(9.53193 0.327467 0)
(9.56651 0.312116 2.23979e-19)
(9.59792 0.297009 -1.96472e-19)
(9.62644 0.282172 5.72504e-20)
(9.65236 0.267618 2.34649e-21)
(9.67592 0.253355 0)
(9.69736 0.239384 0)
(9.71689 0.225706 1.1071e-19)
(9.73468 0.212316 -1.64474e-19)
(9.75089 0.199211 0)
(9.76565 0.186381 -5.54305e-20)
(9.77908 0.173819 5.32577e-20)
(9.7913 0.161512 -1.07401e-19)
(9.80237 0.149449 1.06927e-19)
(9.8124 0.137613 0)
(9.82143 0.125989 -1.56853e-19)
(9.82955 0.114557 2.99961e-22)
(9.83679 0.103299 5.13477e-20)
(9.8432 0.0921906 1.02237e-19)
(9.84882 0.0812093 1.3033e-22)
(9.85368 0.0703292 1.00502e-19)
(9.85779 0.0595229 0)
(9.86119 0.0487606 4.91356e-20)
(9.86387 0.0380122 -4.99741e-20)
(9.86583 0.0272381 1.22431e-20)
(9.86707 0.0164334 3.70552e-20)
(9.86757 0.00540694 1.22919e-19)
(3.63173 0.322121 -7.4887e-20)
(5.22341 0.392192 -1.79949e-18)
(6.31927 0.460348 1.34912e-18)
(7.02413 0.488893 1.23018e-18)
(7.48765 0.507236 -1.06694e-18)
(7.81313 0.514069 0)
(8.05655 0.515891 -4.3403e-19)
(8.24806 0.513969 2.97226e-19)
(8.40488 0.509533 3.06008e-19)
(8.5375 0.503209 -2.7657e-19)
(8.65267 0.495392 3.32117e-20)
(8.75485 0.486332 0)
(8.84709 0.476197 0)
(8.93148 0.465108 -5.47885e-20)
(9.00945 0.453166 0)
(9.08195 0.440464 0)
(9.14962 0.427098 0)
(9.2128 0.413173 2.31555e-19)
(9.27171 0.398805 -2.04908e-19)
(9.32646 0.384112 2.65676e-20)
(9.37711 0.369217 2.08715e-19)
(9.42377 0.35423 2.81551e-20)
(9.46654 0.339251 -2.35939e-19)
(9.50564 0.324359 0)
(9.54127 0.309614 2.60065e-20)
(9.57372 0.295057 -2.73255e-20)
(9.60325 0.280715 1.88032e-19)