/*--------------------------------*- C++ -*----------------------------------*\
| =========                 |                                                 |
| \\      /  F ield         | OpenFOAM: The Open Source CFD Toolbox           |
|  \\    /   O peration     | Version:  2.2.x                                 |
|   \\  /    A nd           | Web:      www.OpenFOAM.org                      |
|    \\/     M anipulation  |                                                 |
\*---------------------------------------------------------------------------*/
FoamFile
{
    version     2.0;
    format      ascii;
    class       volVectorField;
    location    "2000";
    object      Ua;
}
// * * * * * * * * * * * * * * * * * * * * * * * * * * * * * * * * * * * * * //

dimensions      [0 1 -1 0 0 0 0];

internalField   nonuniform List<vector> 
5000
(
(11.436 -2.74431 2.66621e-20)
(10.2633 5.74487 0)
(11.5661 1.14449 0)
(11.0469 4.72978 6.96079e-18)
(11.1667 4.40616 -5.74725e-18)
(10.9307 5.56404 -5.07474e-18)
(10.8563 5.99585 4.84676e-18)
(10.7121 6.58969 4.79355e-18)
(10.5968 6.99217 -9.56878e-18)
(10.4757 7.3571 4.81771e-18)
(10.3677 7.6298 -1.92734e-20)
(10.2676 7.84212 -1.93909e-20)
(10.1784 7.98935 0)
(10.0989 8.08177 0)
(10.0289 8.12294 5.09512e-18)
(9.96767 8.11882 -5.10863e-18)
(9.91466 8.07399 0)
(9.8691 7.99319 -5.25517e-18)
(9.83034 7.88063 1.05716e-17)
(9.79769 7.74034 3.80061e-20)
(9.77049 7.57591 -5.36325e-18)
(9.74813 7.39071 -5.4437e-18)
(9.73003 7.18771 5.47283e-18)
(9.71566 6.96961 0)
(9.70452 6.73884 2.14061e-20)
(9.69619 6.49752 0)
(9.69026 6.24756 5.62521e-18)
(9.68638 5.99061 -5.62922e-18)
(9.68428 5.72815 0)
(9.68366 5.46147 2.8954e-18)
(9.6843 5.19168 9.66587e-21)
(9.686 4.91978 -2.81791e-18)
(9.68857 4.64661 -4.44006e-20)
(9.69187 4.37291 0)
(9.69573 4.09929 0)
(9.70003 3.82628 0)
(9.70464 3.55428 -4.47742e-20)
(9.70946 3.28362 0)
(9.71437 3.01451 -4.48615e-20)
(9.71927 2.74709 0)
(9.72407 2.48139 0)
(9.72869 2.21737 -4.48774e-20)
(9.73304 1.95487 0)
(9.73706 1.69372 -1.44796e-18)
(9.74067 1.43356 1.44526e-18)
(9.74379 1.1741 0)
(9.74633 0.914708 -6.75842e-19)
(9.7482 0.655125 3.14799e-19)
(9.74925 0.393898 5.3789e-19)
(9.74906 0.131794 -2.05575e-19)
(8.67621 -11.2954 5.27664e-18)
(10.7277 6.81387 -1.44389e-17)
(12.6907 -0.941742 -1.26567e-17)
(12.2647 2.92882 9.28188e-18)
(12.1709 2.13883 7.08818e-18)
(11.7449 3.01398 -5.50231e-20)
(11.4964 3.1644 -5.44877e-18)
(11.2209 3.51968 5.03467e-18)
(10.9996 3.72035 -3.75068e-20)
(10.7939 3.92114 -4.85253e-18)
(10.6145 4.06521 -5.69404e-20)
(10.4535 4.18137 9.36056e-20)
(10.3111 4.26224 -4.78676e-18)
(10.185 4.31505 4.79111e-18)
(10.0741 4.34067 -4.81634e-18)
(9.97718 4.34243 4.81942e-18)
(9.89308 4.32243 7.56351e-20)
(9.82071 4.2831 4.95592e-18)
(9.759 4.22655 -4.88018e-18)
(9.70691 4.15481 -7.65013e-20)
(9.66345 4.06975 0)
(9.62766 3.9731 0)
(9.59864 3.86643 -1.9681e-20)
(9.57555 3.75118 0)
(9.55763 3.62865 5.09631e-18)
(9.5442 3.5 -2.50469e-18)
(9.53463 3.36628 -5.06277e-18)
(9.52838 3.22842 2.53396e-18)
(9.52496 3.08725 -2.47281e-18)
(9.52396 2.94351 2.4284e-18)
(9.525 2.79785 2.6425e-18)
(9.52777 2.65086 -2.67861e-18)
(9.53196 2.50304 4.05684e-20)
(9.53731 2.35483 2.41334e-18)
(9.54361 2.20661 -5.14165e-18)
(9.55063 2.05871 2.56842e-18)
(9.55818 1.91138 -2.53388e-18)
(9.56606 1.76483 -5.34295e-21)
(9.57412 1.61921 2.44732e-18)
(9.58218 1.47462 0)
(9.59011 1.3311 -1.28228e-18)
(9.59776 1.18864 1.47772e-18)
(9.60502 1.04718 -1.11869e-18)
(9.61177 0.906627 2.70591e-18)
(9.6179 0.766801 -1.27001e-18)
(9.6233 0.627566 0)
(9.62786 0.488566 -1.96866e-19)
(9.63142 0.349713 3.54404e-19)
(9.63383 0.2103 -3.13484e-19)
(9.63472 0.070525 1.34764e-19)
(6.68096 -9.28052 1.72302e-17)
(10.9454 7.08051 -1.47254e-17)
(13.1879 -0.345767 0)
(12.9515 3.13977 -1.14116e-17)
(12.8832 1.94806 1.75871e-17)
(12.3724 2.67432 -1.40804e-17)
(12.0629 2.6349 6.17772e-18)
(11.7085 2.88842 8.72573e-20)
(11.4151 2.99833 0)
(11.1376 3.13836 5.02128e-18)
(10.8916 3.23625 -4.89168e-18)
(10.6687 3.32131 -2.30536e-19)
(10.4701 3.38213 0)
(10.2933 3.42458 -5.02518e-18)
(10.1371 3.44777 4.87333e-18)
(9.99985 3.45383 0)
(9.88025 3.44373 -4.96604e-18)
(9.77681 3.41897 4.8116e-18)
(9.68812 3.38084 4.91478e-18)
(9.61278 3.33065 -4.98748e-18)
(9.54948 3.26965 0)
(9.49691 3.19903 0)
(9.45387 3.11992 -1.54318e-19)
(9.41922 3.03336 1.54731e-19)
(9.39192 2.94032 7.66156e-20)
(9.37103 2.8417 0)
(9.35569 2.73831 0)
(9.34514 2.63091 2.52361e-18)
(9.3387 2.52018 -2.59837e-18)
(9.3358 2.40675 2.3647e-19)
(9.3359 2.29117 -2.61754e-18)
(9.33855 2.17394 2.61211e-18)
(9.34332 2.05553 0)
(9.34986 1.93633 -2.22772e-18)
(9.35782 1.81668 2.53884e-18)
(9.36689 1.69688 0)
(9.37679 1.57719 -2.54548e-18)
(9.38725 1.4578 2.53816e-18)
(9.398 1.33886 1.59639e-19)
(9.40883 1.22048 -1.58412e-18)
(9.41952 1.10272 1.57962e-18)
(9.42985 0.985596 -1.58905e-19)
(9.43966 0.869066 -1.73414e-18)
(9.44877 0.753072 1.41219e-18)
(9.45703 0.637475 3.11825e-19)
(9.46427 0.522183 -3.10931e-19)
(9.47033 0.406875 1.56767e-19)
(9.47503 0.291565 -3.08867e-19)
(9.47806 0.175565 0)
(9.47946 0.0591675 -4.00707e-19)
(6.21792 -8.58948 1.8362e-17)
(10.1682 7.26068 -1.6053e-17)
(13.1642 -0.231636 0)
(13.1228 3.47303 1.30593e-17)
(13.1636 1.96905 -2.03185e-17)
(12.6742 2.68096 8.07661e-18)
(12.3583 2.52025 0)
(11.9836 2.71476 -6.22847e-18)
(11.6641 2.76384 5.39615e-18)
(11.3575 2.86202 0)
(11.0804 2.92786 0)
(10.826 2.99136 1.55732e-19)
(10.5961 3.03862 0)
(10.389 3.07417 3.08229e-19)
(10.2042 3.09574 -1.53882e-19)
(10.0404 3.10434 0)
(9.89624 3.10005 0)
(9.77053 3.08364 0)
(9.6618 3.05577 0)
(9.56864 3.01729 -4.6015e-18)
(9.48961 2.96903 9.81817e-18)
(9.42331 2.91187 -4.60307e-18)
(9.3684 2.84664 4.61339e-19)
(9.32361 2.77418 -1.5514e-19)
(9.28774 2.69528 -2.94e-18)
(9.25971 2.61071 5.26275e-18)
(9.23853 2.52117 -2.47744e-18)
(9.2233 2.42734 0)
(9.21323 2.32985 2.49597e-18)
(9.20762 2.22927 -1.47821e-19)
(9.20582 2.12613 -4.99709e-18)
(9.2073 2.02092 5.00278e-18)
(9.21153 1.91409 -5.00724e-18)
(9.21805 1.80602 5.16394e-18)
(9.22646 1.69708 -2.50234e-18)
(9.23637 1.58755 0)
(9.2474 1.4777 -2.5091e-18)
(9.25922 1.36773 -3.17377e-19)
(9.27152 1.25782 -5.68065e-21)
(9.28399 1.14809 1.5606e-18)
(9.29637 1.0386 9.32801e-19)
(9.30839 0.929391 -3.09726e-19)
(9.31982 0.820449 1.24817e-18)
(9.33045 0.711732 -3.10171e-18)
(9.34007 0.603119 9.25321e-19)
(9.34848 0.494536 -3.0308e-19)
(9.35547 0.385669 -6.11481e-19)
(9.3608 0.276585 1.85444e-21)
(9.36416 0.166378 -1.49285e-19)
(9.36542 0.0561512 1.33718e-19)
(5.97589 -8.52598 1.90275e-17)
(9.8467 7.31047 3.76719e-18)
(13.0831 -0.23422 -5.25297e-21)
(13.2528 3.68358 4.44308e-19)
(13.3658 1.98759 -2.24953e-17)
(12.9134 2.72164 1.7796e-17)
(12.602 2.48361 -7.45355e-18)
(12.2191 2.64654 1.99444e-19)
(11.8839 2.65494 1.80279e-19)
(11.5573 2.72325 0)
(11.2571 2.76352 0)
(10.9774 2.80757 0)
(10.7211 2.84052 3.14099e-19)
(10.4873 2.86649 -1.54503e-19)
(10.2761 2.88257 1.53673e-19)
(10.0869 2.88912 -4.90012e-18)
(9.91884 2.88565 9.78864e-18)
(9.77089 2.87237 -5.19279e-18)
(9.64179 2.84948 -3.04485e-19)
(9.53019 2.81742 1.51388e-19)
(9.43464 2.77667 4.87924e-18)
(9.35371 2.7278 -5.48304e-18)
(9.28598 2.67143 -3.0632e-19)
(9.23005 2.60816 -4.89306e-18)
(9.18463 2.53865 5.96777e-19)
(9.14851 2.46349 4.58309e-18)
(9.12057 2.38332 -2.45699e-18)
(9.09981 2.2987 2.14669e-18)
(9.0853 2.2102 -2.46395e-18)
(9.07623 2.11835 2.76448e-18)
(9.07187 2.02365 2.46981e-18)
(9.07156 1.92657 -2.46376e-18)
(9.07468 1.82751 3.06863e-19)
(9.0807 1.72688 2.16437e-18)
(9.08911 1.62502 -4.94422e-18)
(9.09945 1.52222 2.46874e-18)
(9.11125 1.41876 -6.14242e-19)
(9.12413 1.31484 -2.16321e-18)
(9.13768 1.21065 2.466e-18)
(9.15154 1.10631 0)
(9.16538 1.00192 0)
(9.17887 0.897512 3.09194e-19)
(9.19173 0.793098 -9.19545e-19)
(9.20369 0.688652 1.53134e-18)
(9.21451 0.584073 6.10938e-19)
(9.22391 0.479309 3.73841e-21)
(9.23167 0.374072 6.13812e-19)
(9.23746 0.268466 2.99177e-19)
(9.24095 0.161643 3.04523e-19)
(9.24177 0.0547715 5.18892e-19)
(5.88154 -8.67818 -3.51535e-17)
(9.52829 7.37978 1.70179e-17)
(12.9862 -0.393122 5.40031e-19)
(13.2846 3.79914 -1.49627e-17)
(13.477 1.93935 2.35284e-19)
(13.066 2.72606 9.66145e-18)
(12.7681 2.43435 0)
(12.3874 2.58308 6.76371e-18)
(12.0469 2.56434 -1.21572e-17)
(11.7108 2.61208 5.6463e-18)
(11.3977 2.63307 -3.33573e-19)
(11.1027 2.66132 5.11405e-18)
(10.829 2.68165 -5.04771e-18)
(10.5765 2.69829 0)
(10.3458 2.7081 0)
(10.1368 2.71119 0)
(9.94934 2.70671 3.03961e-19)
(9.78268 2.69449 3.03069e-19)
(9.6359 2.67441 3.02637e-19)
(9.50783 2.64657 -6.03688e-19)
(9.39717 2.61117 0)
(9.30254 2.56853 3.02346e-19)
(9.22251 2.51902 4.82486e-18)
(9.15569 2.46309 -4.8186e-18)
(9.10072 2.4012 -2.68542e-21)
(9.05633 2.33385 0)
(9.02133 2.26152 -2.72159e-18)
(8.99461 2.18472 2.96878e-19)
(8.97518 2.10394 -7.67051e-21)
(8.96214 2.01964 2.11651e-18)
(8.95465 1.93229 -2.43199e-18)
(8.95198 1.84231 3.03052e-18)
(8.95343 1.7501 -9.10591e-19)
(8.95839 1.65604 -6.04988e-19)
(8.96625 1.56045 -6.0524e-19)
(8.97649 1.46364 6.05371e-19)
(8.98857 1.36586 6.12691e-19)
(9.00201 1.26734 2.43792e-18)
(9.01636 1.16825 6.09044e-21)
(9.03119 1.06873 -2.42839e-18)
(9.0461 0.968878 6.03719e-19)
(9.0607 0.868761 0)
(9.07467 0.768391 -6.09456e-19)
(9.08768 0.667761 1.20672e-18)
(9.09943 0.56679 -5.99065e-19)
(9.10963 0.465443 0)
(9.11799 0.363458 3.23313e-21)
(9.12415 0.260967 -8.95271e-19)
(9.12778 0.1571 2.97037e-19)
(9.1284 0.0533228 -5.18261e-19)
(5.9148 -9.05191 -1.68554e-17)
(9.35251 7.46982 0)
(12.9472 -0.612612 0)
(13.331 3.83756 -1.5667e-17)
(13.5854 1.8471 2.48932e-17)
(13.2042 2.69366 -1.09086e-17)
(12.9171 2.36436 -5.24356e-19)
(12.5366 2.51067 -4.48588e-19)
(12.191 2.47447 -3.94562e-19)
(11.8465 2.50935 0)
(11.5227 2.51653 -5.359e-18)
(11.2151 2.53266 1.03162e-17)
(10.9272 2.54237 -1.06521e-17)
(10.659 2.5504 4.63527e-18)
(10.4116 2.5537 0)
(10.1855 2.55239 3.01943e-19)
(9.98064 2.54551 -4.79012e-18)
(9.7969 2.53275 4.49598e-18)
(9.63364 2.51374 0)
(9.48996 2.48838 2.98028e-19)
(9.36473 2.45663 -4.75203e-18)
(9.25669 2.4186 4.75101e-18)
(9.16448 2.37448 0)
(9.08672 2.32453 4.74969e-18)
(9.02205 2.26906 -5.04314e-18)
(8.96915 2.20843 2.9569e-19)
(8.92678 2.14302 2.98656e-19)
(8.89378 2.07322 0)
(8.86908 1.99945 0)
(8.85171 1.92211 -5.93166e-19)
(8.84076 1.84161 -2.98515e-18)
(8.8354 1.75832 4.17957e-18)
(8.83487 1.67262 6.09175e-19)
(8.83847 1.58485 6.09676e-19)
(8.84553 1.49532 -2.38567e-18)
(8.85542 1.40432 -1.19896e-18)
(8.86756 1.31209 -2.9976e-18)
(8.88138 1.21887 2.39476e-18)
(8.89636 1.12482 0)
(8.91201 1.03008 6.03774e-19)
(8.92786 0.934772 -1.2024e-18)
(8.94348 0.838957 6.02218e-19)
(8.95847 0.742667 -1.19917e-18)
(8.97247 0.64591 -1.19224e-18)
(8.98513 0.548626 1.19427e-18)
(8.99611 0.4508 -5.89542e-19)
(9.00508 0.352211 5.8774e-19)
(9.01165 0.252991 1.17771e-18)
(9.01547 0.15238 5.83392e-19)
(9.01591 0.0517856 0)
(6.02594 -9.5322 2.29284e-17)
(9.24715 7.54942 -1.76141e-17)
(12.9676 -0.85902 1.96344e-17)
(13.3769 3.81982 -1.72021e-17)
(13.6963 1.71338 1.45162e-17)
(13.3274 2.62746 -1.0392e-17)
(13.0507 2.26643 5.44554e-19)
(12.6666 2.42023 -2.89432e-21)
(12.316 2.37247 8.08804e-19)
(11.9632 2.40103 -3.66509e-19)
(11.6303 2.39906 3.37879e-19)
(11.3122 2.40695 0)
(11.0129 2.40872 4.94084e-18)
(10.7322 2.4099 -4.87925e-18)
(10.4715 2.40761 2.99294e-19)
(10.2311 2.40218 4.42603e-18)
(10.0116 2.3927 -5.31517e-18)
(9.81312 2.37883 -4.38641e-18)
(9.63526 2.36012 4.98084e-18)
(9.47744 2.33633 2.91369e-19)
(9.33876 2.30728 4.65645e-18)
(9.21811 2.27291 -4.95069e-18)
(9.11424 2.23325 0)
(9.02585 2.18841 4.654e-18)
(8.9516 2.13857 3.26435e-21)
(8.89018 2.08396 -5.23707e-18)
(8.84033 2.02485 0)
(8.80087 1.96153 0)
(8.77067 1.89434 2.90604e-19)
(8.74869 1.8236 5.88065e-19)
(8.73399 1.74966 5.88985e-19)
(8.72565 1.67285 2.34933e-18)
(8.72285 1.59349 -2.34559e-18)
(8.72481 1.51191 2.3555e-18)
(8.73079 1.42837 -1.75885e-18)
(8.7401 1.34316 1.1786e-18)
(8.75206 1.2565 2.36853e-18)
(8.76605 1.16861 6.57602e-21)
(8.78149 1.07966 6.27628e-21)
(8.7978 0.989793 -4.71211e-18)
(8.81446 0.89912 1.76252e-18)
(8.831 0.807721 1.77191e-18)
(8.84694 0.715636 -1.18211e-18)
(8.86189 0.622889 0)
(8.87545 0.529441 2.34608e-18)
(8.88724 0.435294 -5.80873e-19)
(8.8969 0.340269 -5.86349e-19)
(8.904 0.244491 -2.93681e-19)
(8.90819 0.147317 -8.71522e-19)
(8.90876 0.050037 0)
(6.22129 -10.0245 9.13248e-18)
(9.21951 7.57466 -3.92631e-17)
(13.0788 -1.09865 5.96097e-19)
(13.4513 3.77217 3.42431e-17)
(13.8423 1.5484 -7.19599e-19)
(13.4622 2.54238 -2.17868e-17)
(13.1939 2.14586 0)
(12.798 2.31653 8.04125e-18)
(12.439 2.25919 -7.06083e-18)
(12.0743 2.28661 -5.50002e-18)
(11.7305 2.27855 5.46272e-18)
(11.4011 2.28137 1.59841e-19)
(11.0905 2.27741 1.51985e-19)
(10.7981 2.27343 2.96703e-19)
(10.5252 2.26656 -2.91479e-19)
(10.2722 2.25752 4.59962e-18)
(10.0396 2.2455 -4.4617e-18)
(9.82781 2.23026 0)
(9.63663 2.21135 -4.82907e-18)
(9.46574 2.18848 4.5579e-18)
(9.31442 2.16138 4.25255e-18)
(9.18177 2.1299 -4.26196e-18)
(9.06666 2.09393 0)
(8.96789 2.05348 0)
(8.88419 2.0086 0)
(8.81428 1.95941 2.85395e-19)
(8.7569 1.90607 0)
(8.71086 1.84878 -4.56296e-18)
(8.67501 1.7878 4.27592e-18)
(8.64828 1.72336 2.8462e-19)
(8.62965 1.65576 -2.29489e-18)
(8.61817 1.58526 2.5791e-18)
(8.61296 1.51215 2.30413e-18)
(8.61315 1.43669 2.93317e-19)
(8.61794 1.35914 -2.30572e-18)
(8.62656 1.27975 -5.8161e-19)
(8.63829 1.19872 2.90155e-18)
(8.65242 1.11625 -2.31503e-18)
(8.66829 1.03251 0)
(8.68528 0.947633 5.83706e-19)
(8.7028 0.861737 0)
(8.72032 0.774904 0)
(8.73732 0.687183 -5.83114e-19)
(8.75334 0.598612 5.76246e-19)
(8.76796 0.509172 5.75978e-19)
(8.78075 0.418883 -1.72761e-18)
(8.79132 0.327605 5.7275e-19)
(8.79922 0.235464 -8.57993e-19)
(8.80405 0.14196 8.54728e-19)
(8.8051 0.048114 0)
(6.5128 -10.2447 -4.11044e-17)
(9.20834 7.48033 5.33814e-19)
(13.2673 -1.34598 -6.00329e-19)
(13.5397 3.73304 -3.44509e-17)
(14.0195 1.34723 2.79015e-17)
(13.6014 2.45354 -2.23107e-17)
(13.3437 2.00493 1.84156e-17)
(12.9262 2.20463 0)
(12.5568 2.13577 -1.03039e-19)
(12.1767 2.16666 1.16118e-17)
(11.8206 2.15405 -1.07218e-17)
(11.4791 2.15428 -1.54948e-19)
(11.1575 2.14626 4.92204e-18)
(10.8543 2.13864 -9.14131e-18)
(10.5707 2.12825 8.94229e-18)
(10.3068 2.1163 -4.36272e-18)
(10.0632 2.10209 1.36709e-19)
(9.83999 2.08555 4.34258e-18)
(9.63732 2.06628 -8.69919e-18)
(9.45495 2.04397 4.08556e-18)
(9.29239 2.01835 4.60785e-18)
(9.14887 1.98919 -4.35397e-18)
(9.02343 1.95632 0)
(8.91498 1.91965 -6.78317e-20)
(8.82235 1.87913 -4.35828e-18)
(8.7443 1.8348 8.73525e-18)
(8.67962 1.78672 -4.37554e-18)
(8.62712 1.73503 0)
(8.58565 1.67987 0)
(8.55412 1.62144 4.20545e-18)
(8.53147 1.55993 -8.70754e-18)
(8.51672 1.49558 6.37215e-18)
(8.50892 1.42859 -2.22158e-18)
(8.50716 1.3592 -4.19176e-19)
(8.51057 1.28763 2.24069e-18)
(8.51833 1.21407 -2.24043e-18)
(8.52963 1.13873 0)
(8.54371 1.06178 0)
(8.55986 0.98336 0)
(8.57737 0.903613 2.2664e-18)
(8.59562 0.822642 -2.40468e-18)
(8.61399 0.740531 -1.13579e-18)
(8.63196 0.657338 1.27514e-18)
(8.64899 0.57311 7.06921e-19)
(8.66464 0.487842 -9.92894e-19)
(8.67844 0.401577 4.28984e-19)
(8.68997 0.314204 -4.28383e-19)
(8.69878 0.22587 7.10279e-19)
(8.7044 0.136198 -7.07647e-19)
(8.70624 0.045989 -1.22955e-19)
(6.56179 -9.37343 -1.14076e-17)
(9.54696 7.3572 1.98523e-19)
(13.3331 -1.69682 3.29644e-19)
(13.7652 3.74503 -4.70818e-19)
(14.151 1.10539 2.47958e-19)
(13.7629 2.38769 -6.68043e-18)
(13.4752 1.85427 5.80842e-18)
(13.0454 2.09651 4.55557e-18)
(12.657 2.00859 -3.87982e-18)
(12.2617 2.04619 3.72968e-18)
(11.8914 2.02858 -6.60939e-18)
(11.5378 2.02794 3.08218e-18)
(11.2054 2.01702 9.05104e-20)
(10.8928 2.00713 -2.92653e-18)
(10.6004 1.99432 5.36954e-18)
(10.328 1.98037 -2.72093e-18)
(10.0759 1.96457 -2.57305e-18)
(9.84422 1.94704 2.72396e-18)
(9.63296 1.92743 2.52198e-18)
(9.44193 1.90551 -2.36209e-18)
(9.27075 1.88101 2.4882e-18)
(9.11876 1.85369 -9.95973e-21)
(8.98512 1.82335 -2.46864e-18)
(8.86884 1.78984 -2.3722e-18)
(8.76881 1.75306 2.44143e-18)
(8.6839 1.71298 1.51386e-19)
(8.61292 1.66959 -1.50727e-19)
(8.55471 1.62294 -1.50129e-19)
(8.50815 1.57312 0)
(8.47213 1.52025 -7.50596e-20)
(8.44561 1.46447 -2.98357e-19)
(8.42756 1.40593 0)
(8.41702 1.34481 0)
(8.41304 1.28129 2.96105e-19)
(8.41472 1.21553 1.18315e-18)
(8.42117 1.14771 -1.47058e-18)
(8.43156 1.07799 0)
(8.44507 1.00652 0)
(8.46092 0.93343 1.46249e-18)
(8.47839 0.858836 -1.16483e-18)
(8.49678 0.782838 7.28118e-19)
(8.51546 0.705516 -2.90308e-19)
(8.53383 0.626929 -1.01032e-18)
(8.55136 0.547132 4.30035e-19)
(8.56754 0.466128 -1.43813e-19)
(8.5819 0.383979 -1.40519e-19)
(8.59399 0.300592 -4.24636e-19)
(8.60337 0.216151 1.41637e-19)
(8.60953 0.130315 0)
(8.61203 0.0438855 2.42505e-19)
(6.58501 -9.27359 0)
(9.89398 7.34009 -1.37071e-17)
(13.3204 -1.74454 9.92814e-18)
(13.9576 3.68281 3.18246e-19)
(14.2105 1.03729 -2.51633e-19)
(13.8829 2.3199 -4.35313e-19)
(13.5551 1.77913 1.79277e-19)
(13.1267 2.02099 -4.69007e-18)
(12.7208 1.92868 8.05192e-18)
(12.3163 1.9645 -3.8811e-18)
(11.935 1.94403 -3.35899e-18)
(11.5729 1.9411 3.14363e-18)
(11.2328 1.92771 -3.66761e-19)
(10.9135 1.91551 3.13447e-18)
(10.615 1.90048 -2.72115e-18)
(10.3369 1.88452 -2.62561e-18)
(10.0794 1.86699 -1.37586e-19)
(9.8422 1.84809 2.4078e-18)
(9.6254 1.82753 0)
(9.42877 1.80513 -1.56844e-19)
(9.25192 1.78064 -2.48233e-18)
(9.09425 1.75383 2.16915e-18)
(8.955 1.72449 0)
(8.83322 1.69246 2.74249e-18)
(8.72788 1.65759 -2.42998e-18)
(8.63788 1.61983 -2.56464e-18)
(8.56209 1.57912 2.55442e-18)
(8.49938 1.53549 1.34622e-18)
(8.44865 1.48897 7.05412e-22)
(8.40882 1.43964 -8.90485e-19)
(8.37883 1.3876 1.48357e-19)
(8.35768 1.33297 -1.18014e-18)
(8.34437 1.27588 2.35111e-18)
(8.33796 1.21647 -1.31797e-18)
(8.33752 1.15488 -2.91167e-19)
(8.34214 1.09126 5.83031e-19)
(8.35096 1.02574 0)
(8.36313 0.958453 -1.44989e-18)
(8.37785 0.889507 8.64459e-19)
(8.39436 0.819009 2.87056e-19)
(8.41193 0.747047 -2.86143e-19)
(8.4299 0.673699 -2.8764e-19)
(8.44766 0.59902 2.86613e-19)
(8.46463 0.523068 -2.83025e-19)
(8.48029 0.445855 1.13017e-18)
(8.49415 0.367452 2.81046e-19)
(8.50576 0.287775 2.81657e-19)
(8.51466 0.207034 4.15881e-19)
(8.52037 0.12486 -4.13586e-19)
(8.52249 0.0421562 2.38001e-19)
(6.70521 -9.41485 2.70652e-17)
(10.0556 7.34937 -1.05042e-17)
(13.4065 -1.77558 1.21034e-17)
(14.0689 3.61708 3.4283e-19)
(14.3045 0.987723 -8.33152e-18)
(13.9838 2.25706 -1.56801e-21)
(13.6412 1.71784 5.37244e-18)
(13.2042 1.95502 -4.94184e-18)
(12.7851 1.86086 4.48562e-18)
(12.3698 1.8937 -3.5521e-18)
(11.978 1.87093 3.7939e-18)
(11.6071 1.86549 -5.85708e-18)
(11.2592 1.84981 3.12874e-18)
(10.9332 1.83535 -1.73918e-19)
(10.6287 1.81823 -2.33235e-18)
(10.3452 1.80035 2.6253e-18)
(10.0824 1.78114 1.60024e-19)
(9.84016 1.76085 -2.513e-18)
(9.61825 1.73925 3.31628e-19)
(9.41645 1.71621 -2.9182e-19)
(9.23437 1.69148 1.47533e-20)
(9.07146 1.66484 2.75182e-18)
(8.92699 1.6361 0)
(8.80008 1.60506 -3.01848e-19)
(8.68976 1.57159 0)
(8.59496 1.53559 2.38345e-18)
(8.51462 1.49698 -2.07925e-18)
(8.44762 1.45576 -2.94666e-19)
(8.3929 1.41193 0)
(8.34938 1.36552 -2.94048e-19)
(8.31603 1.31662 2.91253e-19)
(8.29183 1.26529 0)
(8.27581 1.21165 -1.45208e-18)
(8.26699 1.15581 -2.41357e-21)
(8.26442 1.09787 2.60056e-18)
(8.2672 1.03796 -8.66094e-19)
(8.27442 0.976191 -5.72521e-19)
(8.28521 0.912663 -8.60051e-19)
(8.29876 0.84748 1.71124e-18)
(8.31426 0.780732 2.8158e-19)
(8.33097 0.712498 2.85359e-19)
(8.3482 0.64285 0)
(8.36531 0.571842 -5.65093e-19)
(8.3817 0.499533 1.40725e-18)
(8.39685 0.425939 -5.64421e-19)
(8.41024 0.351142 -1.39456e-18)
(8.4214 0.275063 1.10777e-18)
(8.42987 0.197941 -8.30612e-19)
(8.43517 0.119377 5.5156e-19)
(8.43689 0.0404223 -4.80119e-19)
(6.83983 -9.575 1.2701e-17)
(10.1782 7.35433 1.32128e-17)
(13.5054 -1.79778 -1.10609e-17)
(14.1633 3.55284 0)
(14.4026 0.945821 0)
(14.0786 2.19775 -6.49808e-18)
(13.7267 1.6615 -6.18755e-19)
(13.2785 1.89299 9.94281e-18)
(12.8471 1.79713 -8.61488e-18)
(12.4202 1.8268 3.59241e-18)
(12.018 1.80173 -3.82532e-18)
(11.638 1.79378 2.77197e-18)
(11.2823 1.77587 0)
(10.9496 1.75923 0)
(10.6393 1.74011 7.76467e-23)
(10.3507 1.72039 -2.58339e-18)
(10.0831 1.69959 2.87351e-18)
(9.8362 1.67798 0)
(9.60972 1.65538 2.15528e-18)
(9.40332 1.63168 -2.46144e-18)
(9.2166 1.60667 3.03926e-19)
(9.04902 1.58015 0)
(8.89988 1.5519 2.39815e-18)
(8.76835 1.52174 -2.39435e-18)
(8.65351 1.48952 0)
(8.55434 1.4551 -2.94948e-19)
(8.46981 1.4184 -5.88328e-19)
(8.39885 1.37938 2.93597e-19)
(8.34041 1.33802 1.45752e-18)
(8.29345 1.29432 4.29358e-22)
(8.25693 1.24833 -2.60696e-18)
(8.22985 1.20009 5.78358e-19)
(8.21122 1.14969 -8.6324e-19)
(8.20007 1.0972 -2.12654e-21)
(8.19544 1.04271 1.14352e-18)
(8.1964 0.986311 5.69997e-19)
(8.20203 0.928098 -5.65852e-19)
(8.21145 0.86816 0)
(8.22379 0.806578 -4.35276e-21)
(8.23826 0.743432 -5.66995e-19)
(8.25408 0.678791 -2.77179e-21)
(8.27053 0.61272 5.60606e-19)
(8.28696 0.545271 0)
(8.30275 0.476503 -5.57673e-19)
(8.31736 0.406437 -5.5555e-19)
(8.33026 0.33516 8.31263e-19)
(8.34098 0.262601 -5.5194e-19)
(8.34904 0.189014 -1.3661e-19)
(8.35398 0.113987 -1.35965e-19)
(8.35534 0.0386792 0)
(6.97465 -9.7082 1.57872e-17)
(10.2872 7.34866 8.14173e-19)
(13.5977 -1.81319 -2.40709e-17)
(14.25 3.49026 9.70532e-18)
(14.4986 0.906997 8.3141e-18)
(14.1708 2.14217 -7.01737e-18)
(13.8114 1.60813 -5.12308e-18)
(13.3515 1.83451 5.06731e-18)
(12.908 1.73667 0)
(12.4692 1.76336 0)
(12.0563 1.73599 -4.3211e-19)
(11.667 1.72564 -3.95621e-19)
(11.3034 1.70559 -3.68318e-19)
(10.964 1.68689 0)
(10.6479 1.6659 -2.98769e-18)
(10.3542 1.64447 2.60157e-18)
(10.0821 1.62218 -3.15951e-19)
(9.83088 1.59932 -3.10443e-19)
(9.6002 1.57576 -3.06584e-19)
(9.38963 1.55143 -2.11833e-18)
(9.19869 1.52612 2.42111e-18)
(9.02686 1.49965 2.3905e-18)
(8.87346 1.47182 -1.1951e-20)
(8.73771 1.44242 -4.73977e-18)
(8.61871 1.4113 7.79267e-21)
(8.5155 1.37831 2.64203e-18)
(8.42707 1.34335 2.91558e-18)
(8.35241 1.30634 -5.82116e-19)
(8.29049 1.26724 -3.18172e-18)
(8.24027 1.22604 0)
(8.20075 1.18275 1.14882e-18)
(8.17092 1.13739 -5.70087e-19)
(8.1498 1.09001 1.7108e-18)
(8.13642 1.04066 1.85071e-21)
(8.1298 0.989416 -2.26953e-18)
(8.12899 0.936341 2.26345e-18)
(8.13307 0.881507 -1.12749e-18)
(8.14113 0.824986 5.60883e-19)
(8.1523 0.766845 5.6046e-19)
(8.16574 0.707151 2.52096e-21)
(8.18067 0.645964 -1.67503e-18)
(8.19636 0.583344 2.6158e-21)
(8.21212 0.519337 -5.56338e-19)
(8.22734 0.454003 -9.52472e-22)
(8.24143 0.387366 1.65215e-18)
(8.25389 0.319514 -5.47201e-19)
(8.26422 0.25039 2.72596e-19)
(8.27193 0.180252 -2.70962e-19)
(8.27658 0.108695 0)
(8.27768 0.0369355 0)
(7.10793 -9.81479 0)
(10.3894 7.33283 1.61917e-17)
(13.6794 -1.82321 1.79449e-18)
(14.3306 3.42898 -1.10399e-17)
(14.5894 0.87115 -8.36605e-18)
(14.2593 2.09019 2.54122e-20)
(13.8929 1.55772 1.12528e-19)
(13.4216 1.77954 4.49243e-18)
(12.966 1.67938 -5.51852e-19)
(12.5153 1.70332 0)
(12.0917 1.6736 8.72403e-19)
(11.693 1.66098 3.1648e-18)
(11.3214 1.63886 -2.61283e-18)
(10.9753 1.61823 -3.12321e-18)
(10.6537 1.59547 3.66901e-19)
(10.3552 1.57245 2.91653e-18)
(10.0788 1.54877 0)
(9.82369 1.52475 3.0877e-19)
(9.58927 1.5003 -2.12116e-18)
(9.37499 1.47535 4.82548e-18)
(9.18035 1.44974 -2.70193e-18)
(9.00476 1.4233 2.96831e-19)
(8.84758 1.39581 2.35766e-18)
(8.70804 1.36709 -2.35636e-18)
(8.58529 1.33696 -2.33447e-18)
(8.47841 1.30526 4.65425e-18)
(8.38644 1.27188 -2.95069e-19)
(8.30838 1.23671 -4.03382e-18)
(8.24323 1.1997 5.16759e-18)
(8.18998 1.16081 -1.71716e-18)
(8.14765 1.12001 5.6815e-19)
(8.11524 1.07733 0)
(8.09176 1.03277 -1.13204e-18)
(8.07623 0.986368 0)
(8.06769 0.938174 1.68737e-18)
(8.06518 0.888231 -1.68071e-18)
(8.06774 0.836594 0)
(8.07447 0.783316 -1.11642e-18)
(8.08447 0.728453 -5.54707e-19)
(8.09689 0.672057 -1.66425e-18)
(8.11093 0.61418 1.65932e-18)
(8.12584 0.554874 2.64711e-21)
(8.14093 0.494184 -5.51688e-19)
(8.15556 0.432165 -5.45549e-19)
(8.16915 0.368845 5.43312e-19)
(8.18117 0.304313 0)
(8.19113 0.238522 0)
(8.19854 0.17173 -5.35485e-19)
(8.20295 0.103554 -5.32472e-19)
(8.20385 0.0352175 9.28318e-19)
(7.23956 -9.89698 2.84711e-17)
(10.4853 7.30752 -1.75358e-18)
(13.7511 -1.82971 0)
(14.4046 3.36826 2.58393e-18)
(14.675 0.83708 1.0434e-18)
(14.3441 2.04118 -9.03092e-19)
(13.9712 1.50968 0)
(13.4888 1.72772 -3.82867e-18)
(13.0213 1.62502 4.51395e-18)
(12.5586 1.64654 -4.92946e-19)
(12.1242 1.6145 3.06033e-18)
(11.7161 1.59979 -2.83961e-18)
(11.3367 1.57572 0)
(10.984 1.5533 3.50194e-19)
(10.6569 1.52891 -6.67484e-19)
(10.3538 1.50443 -6.4349e-19)
(10.0734 1.47947 0)
(9.81471 1.45438 3.06758e-19)
(9.57693 1.42909 0)
(9.35939 1.40357 -2.3853e-18)
(9.16147 1.37766 2.68138e-18)
(8.98258 1.35121 2.05685e-18)
(8.82205 1.32402 -2.35285e-18)
(8.67914 1.29588 -2.03661e-18)
(8.55304 1.26663 1.74691e-18)
(8.44284 1.2361 0)
(8.34764 1.20414 2.29647e-18)
(8.26646 1.17065 -1.72015e-18)
(8.19834 1.13554 2.84663e-18)
(8.1423 1.09876 -2.84003e-18)
(8.09734 1.06027 -1.13099e-18)
(8.0625 1.02006 0)
(8.03679 0.978116 1.68732e-18)
(8.01923 0.934463 -5.61005e-19)
(8.00886 0.889119 -1.67778e-18)
(8.0047 0.842115 1.67134e-18)
(8.00579 0.793487 5.5355e-19)
(8.01122 0.743273 5.55625e-19)
(8.02007 0.691515 1.10448e-18)
(8.03148 0.638254 3.75443e-21)
(8.04464 0.583533 0)
(8.05878 0.527398 5.4521e-19)
(8.07321 0.469887 -5.45606e-19)
(8.08726 0.411055 5.44187e-19)
(8.10036 0.350931 5.38782e-19)
(8.11197 0.289602 -5.38082e-19)
(8.12158 0.227035 5.33948e-19)
(8.12872 0.163477 4.01735e-19)
(8.13295 0.0985817 7.00824e-20)
(8.13372 0.0335379 -8.7016e-19)
(7.36981 -9.95695 0)
(10.5754 7.27415 0)
(13.8136 -1.83396 -2.49604e-17)
(14.4722 3.30804 -1.93527e-18)
(14.755 0.804174 1.60893e-17)
(14.4246 1.99474 -6.26634e-18)
(14.0458 1.46365 1.22171e-17)
(13.5526 1.67872 -5.26308e-18)
(13.0733 1.57334 5.65307e-19)
(12.5988 1.59278 4.45491e-18)
(12.1537 1.55849 -7.58737e-18)
(11.7362 1.54189 2.8672e-18)
(11.3489 1.516 -2.97909e-18)
(10.9897 1.49196 2.83496e-18)
(10.6573 1.46608 3.34493e-19)
(10.3498 1.44028 3.21724e-19)
(10.0657 1.41416 3.12117e-19)
(9.80382 1.38811 -3.05822e-19)
(9.56307 1.36206 0)
(9.34268 1.33601 2.36976e-18)
(9.14194 1.30983 -2.36945e-18)
(8.96019 1.28336 -2.33527e-18)
(8.79675 1.25641 1.40666e-20)
(8.65088 1.2288 2.03321e-18)
(8.5218 1.20033 2.87783e-18)
(8.40866 1.17084 -2.29858e-18)
(8.31055 1.14017 5.69796e-19)
(8.22655 1.1082 -2.33724e-21)
(8.15572 1.07483 -5.67217e-19)
(8.09709 1.03998 -2.25412e-18)
(8.04971 1.00361 2.80992e-18)
(8.0126 0.965674 1.11945e-18)
(7.9848 0.926155 -1.11528e-18)
(7.96533 0.885049 -1.11215e-18)
(7.95321 0.84236 0)
(7.94747 0.798102 0)
(7.94715 0.752295 5.50446e-19)
(7.95131 0.704963 -1.09829e-18)
(7.95904 0.656135 -5.49859e-19)
(7.96946 0.605843 5.48244e-19)
(7.98175 0.554119 0)
(7.99512 0.501002 -1.38665e-21)
(8.00888 0.446529 -5.40457e-19)
(8.02237 0.390747 0)
(8.03498 0.333689 5.36964e-19)
(8.04618 0.275437 -5.33879e-19)
(8.05548 0.215972 -7.97434e-19)
(8.06237 0.155526 -2.6431e-19)
(8.06645 0.0937976 1.05173e-18)
(8.06715 0.0319081 9.14428e-19)
(7.49918 -9.99721 5.17862e-18)
(10.6597 7.23411 -2.6076e-17)
(13.8678 -1.83732 -2.37085e-17)
(14.5334 3.24832 2.10703e-17)
(14.8299 0.771654 0)
(14.501 1.95043 7.23531e-18)
(14.1169 1.41915 -1.17759e-19)
(13.6132 1.63216 -7.44589e-19)
(13.1222 1.52399 -5.21024e-18)
(12.6358 1.54176 -4.00695e-18)
(12.1801 1.50534 4.54715e-18)
(11.7533 1.48708 4.09971e-19)
(11.3582 1.45954 0)
(10.9927 1.43405 -3.53684e-19)
(10.6551 1.40685 2.6666e-18)
(10.3434 1.37988 -2.59154e-18)
(10.0559 1.35275 -3.12039e-19)
(9.79106 1.32584 0)
(9.5477 1.29913 0)
(9.32485 1.27261 -2.06093e-18)
(9.12169 1.24617 2.06135e-18)
(8.9375 1.21968 2.90648e-19)
(8.77155 1.19295 0)
(8.62313 1.1658 0)
(8.49144 1.13804 -2.28571e-18)
(8.37568 1.10948 2.00003e-18)
(8.27498 1.07998 -5.68383e-19)
(8.18844 1.04938 -2.21835e-21)
(8.11515 1.01759 0)
(8.05417 0.984509 0)
(8.00455 0.950072 -1.11593e-18)
(7.96535 0.914226 1.66693e-18)
(7.9356 0.876938 0)
(7.91433 0.838185 5.53888e-19)
(7.90056 0.797958 -5.49205e-19)
(7.89332 0.756256 1.09888e-18)
(7.89165 0.713082 -1.09404e-18)
(7.89459 0.668451 0)
(7.90123 0.622378 1.632e-18)
(7.91067 0.574884 1.99342e-21)
(7.9221 0.525995 -5.37172e-19)
(7.93473 0.475742 -1.0748e-18)
(7.94783 0.424157 8.86178e-22)
(7.96075 0.371284 -1.06768e-18)
(7.97289 0.317154 0)
(7.9837 0.261848 -5.28529e-19)
(7.99269 0.205357 5.29423e-19)
(7.99936 0.147896 -1.31234e-19)
(8.00332 0.0892111 -3.93178e-19)
(8.00399 0.0303355 -1.36807e-18)
(7.62808 -10.0205 9.96892e-19)
(10.7387 7.18888 2.96597e-17)
(13.9146 -1.84113 -2.23397e-17)
(14.5887 3.18932 -2.1145e-17)
(14.9 0.738859 1.8394e-17)
(14.5734 1.90795 0)
(14.1844 1.37575 6.95891e-18)
(13.6703 1.58768 -4.727e-18)
(13.1679 1.47663 -4.60966e-18)
(12.6697 1.49318 4.13125e-18)
(12.2034 1.45475 -4.56876e-19)
(11.7674 1.43509 0)
(11.3647 1.40608 0)
(10.9929 1.37935 7.12239e-19)
(10.6503 1.351 0)
(10.3346 1.32303 0)
(10.044 1.29502 0)
(9.77648 1.26739 -2.72339e-18)
(9.53084 1.24011 2.4002e-18)
(9.30589 1.21319 -2.94731e-19)
(9.1007 1.18655 -2.3233e-18)
(8.91444 1.16005 -2.72537e-19)
(8.74638 1.13353 2.59595e-18)
(8.59577 1.1068 0)
(8.46184 1.07966 -2.84237e-19)
(8.34379 1.05195 2.83807e-19)
(8.2408 1.0235 -1.97154e-18)
(8.152 0.994151 1.68715e-18)
(8.07649 0.963792 5.58165e-19)
(8.01337 0.932318 -2.22677e-18)
(7.96172 0.899648 1.66681e-18)
(7.92059 0.865717 -1.10565e-18)
(7.88903 0.830477 -1.6515e-18)
(7.86608 0.793894 5.5014e-19)
(7.85076 0.755943 -5.46401e-19)
(7.84211 0.71661 1.09059e-18)
(7.83914 0.675888 5.46226e-19)
(7.84091 0.633777 1.72242e-21)
(7.84649 0.590284 -2.16568e-18)
(7.855 0.54542 -1.87017e-21)
(7.86558 0.499203 1.61215e-18)
(7.87747 0.451657 1.07266e-18)
(7.88992 0.402809 -1.15195e-21)
(7.90229 0.352698 5.32863e-19)
(7.91396 0.301358 0)
(7.92439 0.24886 1.31637e-18)
(7.93308 0.19521 5.22453e-19)
(7.93956 0.1406 2.59002e-19)
(7.94342 0.0848291 0)
(7.9441 0.0288256 4.53829e-19)
(7.75678 -10.0296 4.15603e-18)
(10.8126 7.13995 -2.69546e-17)
(13.955 -1.84674 2.46864e-17)
(14.6386 3.13133 -2.12518e-17)
(14.9656 0.705116 -1.88667e-17)
(14.6421 1.86704 7.43082e-18)
(14.2486 1.33303 5.58438e-18)
(13.7243 1.54495 -1.35925e-18)
(13.2106 1.43092 5.88341e-19)
(12.7007 1.44671 5.18969e-19)
(12.2239 1.40643 4.62766e-19)