/*--------------------------------*- C++ -*----------------------------------*\
| =========                 |                                                 |
| \\      /  F ield         | OpenFOAM: The Open Source CFD Toolbox           |
|  \\    /   O peration     | Version:  2.2.x                                 |
|   \\  /    A nd           | Web:      www.OpenFOAM.org                      |
|    \\/     M anipulation  |                                                 |
\*---------------------------------------------------------------------------*/
FoamFile
{
    version     2.0;
    format      ascii;
    class       volScalarField;
    location    "1000";
    object      epsilon;
}
// * * * * * * * * * * * * * * * * * * * * * * * * * * * * * * * * * * * * * //

dimensions      [0 2 -3 0 0 0 0];

internalField   nonuniform List<scalar> 
5000
(
2414.15
311.329
74.2436
34.6685
23.6936
19.4788
17.5218
16.4936
15.9075
15.5541
15.3318
15.187
15.0899
15.0227
14.9752
14.9406
14.915
14.8957
14.8808
14.8692
14.86
14.8527
14.8467
14.8419
14.8379
14.8346
14.8319
14.8295
14.8276
14.8259
14.8245
14.8233
14.8222
14.8213
14.8205
14.8198
14.8192
14.8187
14.8182
14.8178
14.8174
14.8171
14.8168
14.8166
14.8163
14.8162
14.816
14.8158
14.8157
14.8156
4779.76
718.305
167.021
66.3384
37.125
26.2294
21.2921
18.7359
17.2947
16.4362
15.9044
15.5647
15.3418
15.1918
15.0883
15.0152
14.9624
14.9233
14.8939
14.8714
14.8538
14.8399
14.8288
14.8199
14.8125
14.8065
14.8015
14.7972
14.7937
14.7907
14.7881
14.7858
14.7839
14.7822
14.7808
14.7795
14.7784
14.7773
14.7765
14.7757
14.7749
14.7743
14.7737
14.7732
14.7727
14.7723
14.7719
14.7715
14.7712
14.771
7067.37
1136.62
282.283
107.995
55.1282
35.3751
26.4694
21.8677
19.2655
17.7064
16.7362
16.1157
15.7101
15.4395
15.2553
15.1272
15.0362
14.9702
14.9213
14.8844
14.856
14.8339
14.8164
14.8024
14.791
14.7817
14.7739
14.7675
14.762
14.7574
14.7535
14.7501
14.7472
14.7446
14.7424
14.7404
14.7387
14.7371
14.7357
14.7345
14.7333
14.7323
14.7314
14.7305
14.7297
14.729
14.7284
14.7278
14.7272
14.7268
8977.31
1543.83
409.951
157.167
77.1732
46.7513
32.9712
25.8491
21.8118
19.3772
17.8486
16.8627
16.2145
15.7814
15.4874
15.2845
15.142
15.0399
14.9653
14.9097
14.8676
14.8352
14.8097
14.7895
14.7732
14.7599
14.749
14.7399
14.7323
14.7259
14.7204
14.7157
14.7116
14.7081
14.705
14.7023
14.6998
14.6977
14.6957
14.694
14.6924
14.6909
14.6896
14.6884
14.6873
14.6863
14.6853
14.6845
14.6837
14.683
10361.5
1887.74
536.734
211.019
102.715
60.2795
40.8041
30.697
24.9519
21.4698
19.2656
17.83
16.8772
16.2359
15.7992
15.4981
15.2874
15.1378
15.0296
14.9499
14.8902
14.8446
14.8093
14.7815
14.7592
14.7413
14.7266
14.7144
14.7043
14.6957
14.6885
14.6823
14.6769
14.6723
14.6682
14.6647
14.6615
14.6587
14.6562
14.6539
14.6519
14.65
14.6483
14.6467
14.6453
14.644
14.6428
14.6417
14.6407
14.6398
11166.9
2133.2
648.987
265.806
130.83
75.7635
49.9535
36.4341
28.7123
24.0094
21.0119
19.0418
17.7208
16.8232
16.2072
15.7807
15.4823
15.271
15.1192
15.0083
14.9261
14.864
14.8162
14.779
14.7495
14.7258
14.7066
14.6908
14.6777
14.6668
14.6575
14.6496
14.6428
14.6369
14.6318
14.6274
14.6234
14.6199
14.6168
14.614
14.6115
14.6092
14.6072
14.6053
14.6036
14.602
14.6006
14.5993
14.5981
14.5971
11422.2
2267.29
736.011
317.353
160.141
92.7791
60.3009
43.0371
33.098
27.0095
23.1041
20.5165
18.7644
17.5613
16.7277
16.146
15.7373
15.4476
15.24
15.0893
14.9783
14.8952
14.8319
14.783
14.7446
14.714
14.6893
14.6692
14.6526
14.6388
14.6272
14.6174
14.609
14.6018
14.5955
14.5901
14.5853
14.5811
14.5774
14.5741
14.5712
14.5685
14.5661
14.564
14.562
14.5603
14.5587
14.5572
14.556
14.5549
11214.9
2296.34
792.091
361.906
189.014
110.685
71.6013
50.4134
38.0756
30.4607
25.5438
22.2615
20.0189
18.4633
17.3739
16.6064
16.063
15.6761
15.3986
15.1977
15.0504
14.9408
14.8581
14.7946
14.7452
14.7062
14.675
14.6497
14.629
14.6118
14.5975
14.5855
14.5752
14.5665
14.5591
14.5526
14.547
14.5421
14.5378
14.534
14.5306
14.5276
14.525
14.5226
14.5205
14.5187
14.517
14.5156
14.5143
14.5133
10664.8
2240.84
817.091
396.821
215.809
128.692
83.4932
58.3957
43.5658
34.3248
28.3134
24.271
21.4861
19.5356
18.1552
17.1723
16.4698
15.966
15.603
15.3398
15.1471
15.0045
14.8975
14.816
14.753
14.7036
14.6644
14.6328
14.6071
14.586
14.5685
14.5539
14.5416
14.5312
14.5223
14.5147
14.5082
14.5026
14.4977
14.4934
14.4897
14.4865
14.4836
14.4812
14.479
14.4772
14.4756
14.4742
14.4731
14.4722
9889.1
2127.25
814.589
420.535
238.777
145.682
95.3094
66.5775
49.3091
38.4287
31.2935
26.4612
23.1073
20.7382
19.0454
17.8275
16.9481
16.3117
15.8501
15.5139
15.2676
15.0855
14.9494
14.8463
14.7672
14.7055
14.6569
14.6181
14.5867
14.561
14.54
14.5225
14.5079
14.4956
14.4852
14.4765
14.469
14.4626
14.4571
14.4525
14.4484
14.445
14.4421
14.4396
14.4375
14.4357
14.4343
14.4332
14.4324
14.4318
9338.06
2021.89
798.805
428.271
249.739
154.812
102.108
71.5178
52.9093
41.0816
33.2717
27.9505
24.2349
21.5933
19.6921
18.3137
17.3105
16.5789
16.0447
15.6537
15.3662
15.1532
14.994
14.8736
14.7813
14.7095
14.6531
14.608
14.5717
14.5421
14.5177
14.4975
14.4807
14.4665
14.4545
14.4444
14.4358
14.4284
14.422
14.4166
14.412
14.4079
14.4045
14.4016
14.3991
14.397
14.3953
14.394
14.3929
14.3922
8853.95
1944.94
785.919
433.97
258.87
162.743
108.147
75.9661
56.1801
43.5087
35.0935
29.3317
25.2891
22.4002
20.3089
18.7829
17.6644
16.8432
16.2396
15.7954
15.4674
15.2238
15.0416
14.9037
14.7981
14.7161
14.6517
14.6004
14.559
14.5254
14.4977
14.4747
14.4555
14.4394
14.4258
14.4142
14.4043
14.3958
14.3885
14.3823
14.3769
14.3722
14.3682
14.3647
14.3618
14.3593
14.3572
14.3555
14.3542
14.3533
8383.5
1879.2
774.924
438.9
267.476
170.506
114.189
80.472
59.5188
45.9988
36.9701
30.7598
26.3838
23.2423
20.9566
19.2789
18.0415
17.1269
16.4504
15.9498
15.5784
15.302
15.0947
14.9379
14.818
14.725
14.6521
14.5941
14.5474
14.5095
14.4783
14.4524
14.4308
14.4127
14.3973
14.3842
14.3731
14.3635
14.3553
14.3482
14.342
14.3367
14.3321
14.3282
14.3248
14.3219
14.3195
14.3176
14.316
14.3149
7924.8
1820.85
765.729
443.216
275.508
178.035
120.192
85.0188
62.922
48.5551
38.907
32.2409
27.5247
24.1248
21.6395
19.8057
18.4452
17.4332
16.68
16.1193
15.7016
15.3895
15.1551
14.9776
14.842
14.737
14.6548
14.5896
14.5372
14.4947
14.4597
14.4308
14.4067
14.3864
14.3692
14.3546
14.3422
14.3315
14.3223
14.3143
14.3074
14.3015
14.2964
14.2919
14.2882
14.2849
14.2822
14.28
14.2783
14.277
7479.51
1768.59
758.591
447.221
283.001
185.286
126.112
89.5745
66.3688
51.1635
40.8945
33.7679
28.7063
25.0433
22.3544
20.3608
18.8737
17.761
16.9278
16.304
15.8369
15.4866
15.2229
15.023
14.8703
14.7523
14.6601
14.587
14.5285
14.481
14.4421
14.41
14.3831
14.3606
14.3416
14.3254
14.3116
14.2997
14.2895
14.2807
14.2731
14.2666
14.2609
14.256
14.2518
14.2483
14.2453
14.2428
14.241
14.2396
7051.1
1721.71
753.753
451.221
290.039
192.246
131.915
94.1111
69.8387
53.8097
42.9222
35.3331
29.9226
25.9929
23.0972
20.941
19.3246
18.1085
17.1927
16.5031
15.984
15.5931
15.298
15.0741
14.9029
14.7708
14.6677
14.5863
14.5211
14.4684
14.4253
14.3898
14.3601
14.3353
14.3143
14.2965
14.2813
14.2683
14.2571
14.2474
14.2391
14.2319
14.2257
14.2203
14.2158
14.2119
14.2087
14.206
14.204
14.2025
6643.31
1680.07
751.429
455.496
296.721
198.915
137.577
98.6024
73.3119
56.4794
44.98
36.9288
31.1678
26.9692
23.8644
21.5433
19.7955
18.474
17.4733
16.7156
16.1424
15.7088
15.3804
15.1308
14.9399
14.7926
14.6779
14.5874
14.5152
14.4569
14.4094
14.3702
14.3377
14.3104
14.2874
14.2679
14.2513
14.237
14.2248
14.2143
14.2052
14.1974
14.1907
14.1849
14.18
14.1758
14.1724
14.1696
14.1674
14.1658
6259.05
1643.77
751.807
460.299
303.161
205.308
143.077
103.026
76.7694
59.1585
47.0577
38.5477
32.4362
27.9677
24.6523
22.1649
20.2841
18.8556
17.7683
16.9408
16.3116
15.8334
15.47
15.1931
14.9811
14.8177
14.6904
14.5903
14.5107
14.4465
14.3943
14.3514
14.3157
14.2859
14.2609
14.2396
14.2215
14.2061
14.1928
14.1814
14.1716
14.1632
14.1559
14.1497
14.1444
14.14
14.1363
14.1333
14.1311
14.1295
5900.32
1613
755.034
465.854
309.48
211.455
148.406
107.362
80.1936
61.8334
49.1449
40.1819
33.722
28.9837
25.4572
22.8027
20.7881
19.2514
18.0764
17.1776
16.4908
15.9665
15.5665
15.2609
15.0266
14.8459
14.7054
14.5951
14.5075
14.4371
14.38
14.3331
14.2943
14.2618
14.2346
14.2116
14.192
14.1753
14.161
14.1487
14.1382
14.1291
14.1213
14.1147
14.1091
14.1044
14.1005
14.0974
14.0951
14.0934
5568.42
1587.88
761.205
472.351
315.801
217.396
153.564
111.596
83.5688
64.4906
51.2313
41.8238
35.0192
30.0126
26.2754
23.4536
21.3048
19.6594
18.3958
17.4248
16.6791
16.1074
15.6695
15.334
15.0763
14.8774
14.7229
14.6017
14.5056
14.4287
14.3664
14.3154
14.2732
14.2381
14.2087
14.1838
14.1627
14.1447
14.1293
14.1162
14.1049
14.0952
14.0869
14.0798
14.0739
14.0689
14.0648
14.0616
14.0592
14.0576
5264.11
1568.46
770.347
479.94
322.239
223.175
158.554
115.718
86.8809
67.1176
53.3067
43.4651
36.3214
31.0493
27.1029
24.1145
21.8317
20.0774
18.7249
17.681
16.8758
16.2556
15.7787
15.4121
15.1299
14.912
14.7426
14.61
14.5051
14.4212
14.3535
14.2982
14.2526
14.2147
14.1829
14.1562
14.1335
14.1143
14.0978
14.0837
14.0717
14.0614
14.0526
14.0451
14.0388
14.0336
14.0294
14.026
14.0236
14.0219
4987.67
1554.68
782.419
488.723
328.895
228.841
163.386
119.719
90.1178
69.7024
55.3609
45.0978
37.6222
32.0889
27.9356
24.782
22.3659
20.5032
19.0618
17.9448
17.0795
16.4102
15.8934
15.4948
15.1873
14.9495
14.7647
14.62
14.5058
14.4147
14.3413
14.2815
14.2323
14.1916
14.1575
14.1288
14.1046
14.084
14.0664
14.0514
14.0386
14.0277
14.0184
14.0105
14.0039
13.9984
13.994
13.9905
13.9881
13.9864
4739.03
1546.38
797.297
498.761
335.853
234.439
168.072
123.596
93.2691
72.2339
57.3841
46.7137
38.9151
33.1259
28.7692
25.4525
22.9045
20.9343
19.4046
18.2146
17.2891
16.5703
16.0131
15.5818
15.2482
14.9898
14.7888
14.6316
14.5077
14.409
14.3297
14.2653
14.2124
14.1687
14.1322
14.1016
14.0757
14.0538
14.0351
14.0192
14.0057
13.9941
13.9843
13.976
13.9691
13.9633
13.9587
13.9552
13.9526
13.951
4517.81
1543.31
814.779
510.06
343.174
240.009
172.625
127.346
96.3253
74.7014
59.3665
48.3046
40.1933
34.155
29.5991
26.1223
23.4446
21.3683
19.7511
18.4888
17.5033
16.7349
16.1369
15.6725
15.3122
15.0326
14.815
14.6448
14.5107
14.4042
14.3187
14.2495
14.1928
14.146
14.1071
14.0745
14.047
14.0237
14.0039
13.9871
13.9728
13.9606
13.9503
13.9416
13.9343
13.9283
13.9235
13.9199
13.9173
13.9157
4323.39
1545.08
834.579
522.578
350.893
245.58
177.057
130.966
99.2777
77.0947
61.2984
49.8619
41.4496
35.1702
30.4207
26.7877
23.9829
21.8024
20.0992
18.7655
17.7206
16.9027
16.264
15.7662
15.3789
15.0776
14.8429
14.6593
14.5148
14.4001
14.3083
14.2341
14.1735
14.1236
14.0821
14.0475
14.0183
13.9937
13.9728
13.955
13.9399
13.9271
13.9163
13.9072
13.8996
13.8934
13.8884
13.8846
13.882
13.8804
4154.99
1551.23
856.333
536.217
359.016
251.172
181.374
134.452
102.118
79.4035
63.1699
51.3772
42.6769
36.1655
31.229
27.4444
24.516
22.2338
20.4465
19.0427
17.9393
17.0727
16.3934
15.8622
15.4477
15.1245
14.8723
14.675
14.5197
14.3967
14.2984
14.2191
14.1545
14.1014
14.0573
14.0206
13.9897
13.9637
13.9417
13.923
13.9071
13.8937
13.8823
13.8728
13.8649
13.8584
13.8533
13.8494
13.8467
13.8451
4011.64
1561.2
879.605
550.823
367.514
256.785
185.575
137.798
104.835
81.6168
64.9708
52.8412
43.8675
37.1347
32.0188
28.0882
25.0403
22.6596
20.7905
19.3185
18.1579
17.2434
16.5241
15.9597
15.518
15.1728
14.903
14.6917
14.5255
14.3939
14.2889
14.2043
14.1356
14.0793
14.0327
13.9938
13.9613
13.9339
13.9107
13.891
13.8744
13.8603
13.8484
13.8385
13.8302
13.8235
13.8182
13.8142
13.8114
13.8098
3892.31
1574.34
903.897
566.183
376.321
262.4
189.65
140.993
107.418
83.7227
66.6899
54.2445
45.0134
38.0711
32.7845
28.7145
25.5521
23.0767
21.1287
19.5907
18.3746
17.4133
16.6549
16.0579
15.5892
15.2221
14.9346
14.7092
14.5318
14.3916
14.2798
14.1899
14.117
14.0573
14.0081
13.9671
13.9329
13.904
13.8797
13.8591
13.8417
13.827
13.8146
13.8042
13.7956
13.7886
13.7831
13.7789
13.7761
13.7745
3795.88
1589.99
928.654
582.02
385.325
267.972
193.577
144.02
109.851
85.7074
68.3153
55.5769
46.106
38.9676
33.5205
29.3186
26.0474
23.4818
21.4585
19.8571
18.5875
17.5812
16.7846
16.1558
15.6607
15.2718
14.9666
14.7271
14.5386
14.3896
14.2709
14.1756
14.0985
14.0355
13.9836
13.9406
13.9046
13.8743
13.8488
13.8273
13.8091
13.7937
13.7807
13.7699
13.761
13.7537
13.748
13.7437
13.7408
13.7392
3721.24
1607.47
953.281
597.992
394.368
273.428
197.318
146.855
112.116
87.5559
69.8346
56.828
47.1369
39.8173
34.221
29.896
26.5227
23.8719
21.7772
20.1155
18.795
17.7454
16.9122
16.2525
15.7316
15.3214
14.9989
14.7454
14.5457
14.3878
14.2622
14.1616
14.0802
14.0138
13.9593
13.914
13.8763
13.8447
13.818
13.7955
13.7765
13.7605
13.747
13.7357
13.7264
13.7188
13.7129
13.7085
13.7055
13.7038
3667.62
1625.58
977.045
613.685
403.242
278.671
200.824
149.473
114.198
89.259
71.2415
57.9936
48.1031
40.6182
34.8847
30.4455
26.9769
24.2463
22.0842
20.3656
18.9965
17.9056
17.0372
16.3477
15.8017
15.3706
15.031
14.7636
14.5529
14.3862
14.2536
14.1475
14.0619
13.9922
13.9349
13.8875
13.8481
13.815
13.7872
13.7637
13.7439
13.7272
13.7132
13.7015
13.6918
13.6839
13.6778
13.6732
13.67
13.6684
3636.43
1644.26
999.45
628.771
411.796
283.635
204.069
151.863
116.095
90.8165
72.537
59.075
49.0059
41.3715
35.5125
30.9681
27.411
24.6056
22.3801
20.6075
19.1923
18.0618
17.1596
16.4412
15.8709
15.4194
15.0629
14.7818
14.56
14.3845
14.245
14.1334
14.0434
13.9703
13.9104
13.8608
13.8197
13.7852
13.7562
13.7318
13.7112
13.6939
13.6793
13.6671
13.6571
13.649
13.6426
13.6378
13.6346
13.6328
3629.55
1662.3
1021.22
643.651
420.112
288.368
207.091
154.053
117.823
92.2395
73.7279
60.0762
49.8478
42.0785
36.1053
31.4641
27.8249
24.9497
22.6647
20.841
19.3819
18.2137
17.2791
16.5329
15.9389
15.4675
15.0945
14.7998
14.5669
14.3827
14.2362
14.1191
14.0248
13.9483
13.8857
13.834
13.7911
13.7552
13.7251
13.6998
13.6784
13.6604
13.6453
13.6327
13.6223
13.6139
13.6073
13.6023
13.599
13.5972
3645.16
1678.88
1040.72
658.313
428.564
293.052
209.971
156.084
119.408
93.5428
74.8235
61.0033
50.6327
42.7419
36.6648
31.9347
28.2195
25.2792
22.9381
21.0662
19.5655
18.3613
17.3956
16.6226
16.0056
15.5148
15.1256
14.8175
14.5737
14.3807
14.2273
14.1047
14.0061
13.9261
13.8608
13.807
13.7623
13.7251
13.6938
13.6675
13.6454
13.6268
13.6112
13.5981
13.5874
13.5787
13.5719
13.5668
13.5633
13.5615
3679.42
1693.77
1057.69
672.234
436.983
297.745
212.793
158.023
120.895
94.7587
75.8459
61.8713
51.3709
43.3688
37.1959
32.3833
28.5971
25.5955
23.2017
21.2841
19.7437
18.505
17.5093
16.7105
16.0712
15.5615
15.1563
14.8349
14.5804
14.3786
14.2182
14.0901
13.9871
13.9038
13.8357
13.7798
13.7334
13.6948
13.6624
13.6352
13.6123
13.5931
13.5769
13.5635
13.5524
13.5434
13.5364
13.5311
13.5276
13.5257
3728.14
1706.83
1071.96
685.175
445.285
302.447
215.578
159.888
122.299
95.8968
76.8014
62.6844
52.0651
43.9609
37.6997
32.8106
28.958
25.8991
23.4554
21.4945
19.9164
18.6447
17.6203
16.7964
16.1356
15.6074
15.1865
14.8521
14.5869
14.3764
14.209
14.0754
13.9681
13.8813
13.8105
13.7524
13.7043
13.6643
13.6308
13.6027
13.5791
13.5592
13.5426
13.5287
13.5173
13.5081
13.5008
13.4954
13.4918
13.4898
3787.42
1718.05
1083.52
696.942
453.37
307.145
218.342
161.698
123.634
96.9666
77.6966
63.447
52.7182
44.5201
38.1774
33.2173
29.3029
26.1901
23.6995
21.6975
20.0834
18.7803
17.7283
16.8804
16.1987
15.6524
15.2163
14.8691
14.5932
14.3741
14.1998
14.0606
13.9489
13.8586
13.7852
13.7249
13.6751
13.6337
13.5991
13.5701
13.5457
13.5253
13.5081
13.4939
13.4821
13.4726
13.4651
13.4596
13.4559
13.4539
3853.8
1727.54
1092.46
707.399
461.142
311.819
221.093
163.467
124.913
97.9777
78.5382
64.1637
53.3334
45.0487
38.6306
33.6046
29.6325
26.4691
23.9342
21.8933
20.2451
18.9118
17.8334
16.9622
16.2603
15.6966
15.2455
14.8857
14.5993
14.3716
14.1904
14.0457
13.9296
13.8359
13.7597
13.6972
13.6457
13.603
13.5673
13.5374
13.5123
13.4912
13.4736
13.4589
13.4468
13.4371
13.4294
13.4237
13.4199
13.4179
3924.36
1735.42
1098.97
716.47
468.517
316.443
223.838
165.208
126.146
98.9393
79.3329
64.8394
53.9142
45.5491
39.0611
33.9737
29.9476
26.7367
24.1599
22.0822
20.4014
19.0394
17.9356
17.0421
16.3206
15.7399
15.2742
14.9019
14.6052
14.369
14.1809
14.0306
13.9102
13.813
13.734
13.6695
13.6162
13.5721
13.5353
13.5045
13.4787
13.457
13.4389
13.4239
13.4115
13.4015
13.3936
13.3878
13.3838
13.3818
3996.7
1741.88
1103.29
724.138
475.423
320.99
226.579
166.933
127.347
99.8608
80.0876
65.4791
54.4642
46.0239
39.4707
34.326
30.2493
26.9937
24.3773
22.2645
20.5527
19.1632
18.035
17.12
16.3795
15.7823
15.3023
14.9179
14.611
14.3663
14.1713
14.0155
13.8906
13.79
13.7083
13.6415
13.5866
13.5411
13.5032
13.4716
13.445
13.4228
13.4042
13.3887
13.376
13.3658
13.3577
13.3518
13.3478
13.3456
4068.87
1747.08
1105.7
730.436
481.813
325.436
229.317
168.652
128.526
100.751
80.8096
66.088
54.9872
46.4761
39.8616
34.663
30.5387
27.2408
24.5869
22.4408
20.6994
19.2835
18.1319
17.196
16.4372
15.8238
15.3299
14.9335
14.6165
14.3635
14.1616
14.0003
13.8711
13.7669
13.6825
13.6135
13.5569
13.5101
13.4711
13.4385
13.4113
13.3885
13.3694
13.3536
13.3406
13.3301
13.3218
13.3157
13.3116
13.3095
4139.24
1751.19
1106.48
735.444
487.657
329.761
232.053
170.374
129.694
101.62
81.506
66.6718
55.4876
46.9086
40.2361
34.9866
30.8172
27.4792
24.7896
22.6116
20.8418
19.4006
18.2263
17.2704
16.4937
15.8646
15.357
14.9489
14.622
14.3607
14.152
13.9851
13.8514
13.7438
13.6566
13.5855
13.5271
13.4789
13.4388
13.4054
13.3775
13.3541
13.3345
13.3183
13.305
13.2943
13.2859
13.2796
13.2754
13.2732
4206.49
1754.39
1105.92
739.272
492.953
333.952
234.788
172.11
130.861
102.477
82.1846
67.2363
55.9696
47.3249
40.5967
35.2987
31.0862
27.7098
24.9861
22.7776
20.9804
19.5148
18.3187
17.3432
16.5492
15.9048
15.3838
14.9642
14.6274
14.3578
14.1423
13.9699
13.8318
13.7206
13.6306
13.5573
13.4972
13.4477
13.4065
13.3722
13.3436
13.3196
13.2996
13.283
13.2694
13.2585
13.2499
13.2435
13.2392
13.237
4269.45
1756.81
1104.31
742.061
497.72
338.005
237.528
173.87
132.041
103.332
82.8533
67.7876
56.438
47.7285
40.9462
35.6012
31.3473
27.9341
25.1774
22.9394
21.1159
19.6266
18.4092
17.4148
16.6038
15.9445
15.4103
14.9793
14.6327
14.355
14.1327
13.9548
13.8122
13.6975
13.6047
13.5292
13.4673
13.4164
13.3742
13.339
13.3096
13.2851
13.2647
13.2477
13.2338
13.2226
13.2138
13.2073
13.2029
13.2007
4327.09
1758.58
1101.91
743.972
502
341.927
240.281
175.666
133.244
104.196
83.5207
68.3324
56.8978
48.1233
41.2875
35.8966
31.6024
28.1533
25.3646
23.098
21.2488
19.7364
18.4984
17.4854
16.6579
15.9838
15.4367
14.9944
14.6382
14.3523
14.1232
13.9398
13.7927
13.6744
13.5787
13.501
13.4374
13.3851
13.3418
13.3057
13.2757
13.2506
13.2297
13.2124
13.1982
13.1867
13.1778
13.1711
13.1667
13.1644
4378.44
1759.83
1099
745.187
505.859
345.738
243.06
177.514
134.484
105.081
84.1961
68.8778
57.3545
48.5135
41.6239
36.1873
31.8532
28.369
25.5489
23.2543
21.3799
19.8449
18.5866
17.5554
16.7116
16.023
15.4631
15.0096
14.6438
14.3497
14.1139
13.9249
13.7733
13.6513
13.5529
13.4729
13.4075
13.3538
13.3093
13.2724
13.2417
13.216
13.1947
13.177
13.1625
13.1509
13.1417
13.135
13.1304
13.1281
4422.5
1760.7
1095.83
745.904
509.385
349.473
245.888
179.431
135.778
105.998
84.8893
69.4314
57.814
48.9035
41.9587
36.4759
32.102
28.5827
25.7315
23.4091
21.5099
19.9526
18.6743
17.6251
16.7652
16.0622
15.4896
15.0251
14.6497
14.3475
14.1048
13.9102
13.754
13.6284
13.5271
13.4448
13.3776
13.3225
13.2769
13.2391
13.2077
13.1815
13.1597
13.1416
13.1269
13.115
13.1057
13.0988
13.0942
13.0918
4458.23
1761.32
1092.71
746.347
512.692
353.183
248.794
181.439
137.144
106.963
85.6112
70.0016
58.2825
49.2981
42.2956
36.7653
32.3507
28.7961
25.9138
23.5636
21.6396
20.0602
18.7619
17.6949
16.819
16.1018
15.5166
15.0409
14.656
14.3456
14.096
13.8957
13.735
13.6057
13.5014
13.4168
13.3478
13.2912
13.2446
13.2059
13.1737
13.1469
13.1247
13.1063
13.0912
13.0791
13.0696
13.0626
13.0579
13.0555
4484.48
1761.93
1089.95
746.773
515.92
356.935
251.819
183.569
138.603
107.992
86.3749
70.598
58.7672
49.7028
42.6387
37.0585
32.602
29.0111
26.0971
23.7189
21.77
20.1683
18.8501
17.7652
16.8733
16.1419
15.544
15.0573
14.6627
14.3441
14.0877
13.8817
13.7162
13.5832
13.4759
13.3889
13.3181
13.26
13.2122
13.1726
13.1398
13.1124
13.0897
13.0709
13.0556
13.0432
13.0336
13.0265
13.0217
13.0192
4499.27
1763.43
1088.12
747.471
519.17
360.8
255.034
185.886
140.208
109.122
87.2061
71.2387
59.281
50.1265
42.9945
37.3603
32.859
29.2302
26.2832
23.8762
21.9018
20.2776
18.9393
17.8365
16.9285
16.1828
15.5722
15.0744
14.6701
14.3432
14.0798
13.868
13.6978
13.5609
13.4505
13.3612
13.2885
13.2289
13.1799
13.1394
13.1058
13.0779
13.0548
13.0356
13.02
13.0074
12.9976
12.9903
12.9855
12.983
4501.82
1765.91
1087.33
748.481
522.528
364.786
258.406
188.349
141.926
110.331
88.0893
71.9128
59.816
50.5638
43.3591
37.6677
33.1199
29.4519
26.4713
24.0351
22.035
20.388
19.0295
17.9085
16.9845
16.2244
15.6011
15.0921
14.6781
14.3429
14.0724
13.8547
13.6797
13.5389
13.4254
13.3336
13.259
13.1979
13.1477
13.1063
13.072
13.0435
13.0199
13.0004
12.9844
12.9716
12.9616
12.9543
12.9493
12.9468
4495.38
1766.23
1086.23
749.166
525.497
368.52
261.675
190.791
143.649
111.549
88.9773
72.5875
60.3488
50.9974
43.7194
37.9711
33.3771
29.6703
26.6567
24.1917
22.1664
20.497
19.1186
17.9799
17.0401
16.2658
15.6301
15.11
14.6863
14.3428
14.0652
13.8416
13.6618
13.5171
13.4005
13.3062
13.2295
13.167
13.1156
13.0732
13.0381
13.0091
12.985
12.9651
12.9489
12.9359
12.9257
12.9182
12.9132
12.9106
4485.03
1765
1084.78
749.535
528.103
372.005
264.831
193.2
145.371
112.772
89.8683
73.2619
60.8788
51.4269
44.0752
38.2701
33.6302
29.8853
26.8391
24.346
22.2959
20.6046
19.2068
18.0507
17.0952
16.3071
15.6589
15.1279
14.6947
14.3429
14.0583
13.8288
13.6441
13.4955
13.3757
13.2788
13.2002
13.1361
13.0835
13.0402
13.0044
12.9747
12.9502
12.9299
12.9134
12.9002
12.8899
12.8822
12.8771
12.8745
4473.42
1762.62
1082.96
749.589
530.362
375.243
267.87
195.572
147.088
113.999
90.7624
73.9365
61.4066
51.8529
44.427
38.5649
33.8795
30.097
27.0188
24.4979
22.4236
20.7109
19.2939
18.1207
17.1499
16.3481
15.6878
15.146
14.7033
14.3433
14.0517
13.8163
13.6267
13.474
13.351
13.2517
13.1711
13.1054
13.0515
13.0072
12.9707
12.9404
12.9154
12.8948
12.878
12.8645
12.854
12.8463
12.8411
12.8385
4461.56
1759.5
1080.83
749.354
532.296
378.24
270.786
197.902
148.799
115.229
91.6594
74.6117
61.9329
52.276
44.7751
38.8561
34.1254
30.3055
27.1958
24.6477
22.5495
20.8157
19.38
18.19
17.2043
16.389
15.7166
15.1641
14.7121
14.3439
14.0453
13.804
13.6095
13.4528
13.3266
13.2246
13.142
13.0747
13.0196
12.9744
12.937
12.9062
12.8807
12.8597
12.8426
12.8289
12.8183
12.8104
12.8052
12.8025
4449.85
1755.93
1078.44
748.864
533.933
381.006
273.579
200.184
150.498
116.459
92.559
75.2876
62.4579
52.6964
45.12
39.1438
34.368
30.5112
27.3703
24.7954
22.6738
20.9193
19.4652
18.2587
17.2582
16.4296
15.7454
15.1824
14.721
14.3447
14.0392
13.792
13.5925
13.4318
13.3023
13.1978
13.1131
13.0442
12.9878
12.9416
12.9035
12.872
12.8461
12.8247
12.8073
12.7934
12.7826
12.7746
12.7693
12.7665
4438.51
1752.09
1075.87
748.154
535.301
383.552
276.247
202.415
152.184
117.689
93.4605
75.9643
62.982
53.1146
45.4619
39.4284
34.6075
30.7141
27.5424
24.9411
22.7965
21.0217
19.5494
18.3268
17.3117
16.4701
15.7742
15.2007
14.7302
14.3458
14.0333
13.7802
13.5758
13.4111
13.2783
13.1711
13.0843
13.0138
12.9561
12.9089
12.87
12.8379
12.8115
12.7898
12.7721
12.758
12.747
12.7389
12.7335
12.7307
4427.59
1748.05
1073.14
747.251
536.423
385.888
278.79
204.592
153.852
118.918
94.3633
76.6418
63.5053
53.5308
45.8012
39.7101
34.8443
30.9143
27.7122
25.0849
22.9176
21.1228
19.6327
18.3942
17.3648
16.5104
15.8029
15.2192
14.7395
14.3472
14.0277
13.7687
13.5594
13.3906
13.2545
13.1446
13.0557
12.9835
12.9246
12.8763
12.8366
12.8039
12.777
12.7549
12.737
12.7226
12.7114
12.7032
12.6977
12.6949
4417.08
1743.87
1070.28
746.18
537.323
388.026
281.21
206.711
155.502
120.142
95.267
77.3199
64.0281
53.9453
46.1381
39.9891
35.0783
31.1121
27.8798
25.2268
23.0372
21.2227
19.7152
18.461
17.4176
16.5505
15.8317
15.2378
14.749
14.3488
14.0224
13.7575
13.5433
13.3703
13.2309
13.1183
13.0272
12.9533
12.8931
12.8438
12.8033
12.77
12.7426
12.7202
12.7019
12.6873
12.676
12.6676
12.6621
12.6592
4406.92
1739.58
1067.32
744.964
538.02
389.976
283.507
208.771
157.13
121.362
96.1707
77.9987
64.5505
54.3585
46.4729
40.2656
35.3098
31.3076
28.0454
25.367
23.1553
21.3216
19.7968
18.5273
17.47
16.5904
15.8604
15.2564
14.7588
14.3506
14.0174
13.7466
13.5274
13.3503
13.2075
13.0922
12.999
12.9234
12.8618
12.8115
12.7702
12.7362
12.7083
12.6855
12.6669
12.6521
12.6406
12.6321
12.6265
12.6236
4397.03
1735.2
1064.28
743.623
538.535
391.751
285.686
210.771
158.734
122.575
97.0739
78.6778
65.0726
54.7703
46.8058
40.5399
35.5391
31.5008
28.209
25.5054
23.2721
21.4193
19.8776
18.5929
17.522
16.6302
15.8891
15.2752
14.7687
14.3527
14.0127
13.736
13.5118
13.3306
13.1843
13.0663
12.9709
12.8935
12.8306
12.7792
12.7371
12.7025
12.6741
12.6509
12.6321
12.617
12.6053
12.5967
12.591
12.5881
4387.31
1730.71
1061.16
742.171
538.886
393.361
287.75
212.709
160.312
123.78
97.976
79.3572
65.5944
55.1812
47.137
40.8122
35.7662
31.692
28.3707
25.6423
23.3875
21.5159
19.9576
18.658
17.5737
16.6697
15.9177
15.294
14.7788
14.355
14.0082
13.7257
13.4965
13.3111
13.1614
13.0406
12.943
12.8639
12.7996
12.7471
12.7042
12.669
12.6401
12.6164
12.5973
12.582
12.5702
12.5614
12.5556
12.5527
4377.68
1726.11
1057.98
740.622
539.087
394.818
289.701
214.585
161.864
124.976
98.8763
80.0366
66.1162
55.5912
47.4667
41.0826
35.9913
31.8813
28.5307
25.7776
23.5017
21.6115
20.0368
18.7225
17.625
16.7091
15.9464
15.313
14.789
14.3576
14.004
13.7156
13.4815
13.2919
13.1388
13.0152
12.9153
12.8344
12.7687
12.7152
12.6714
12.6355
12.6061
12.5821
12.5626
12.5471
12.5351
12.5262
12.5204
12.5174
4368.04
1721.4
1054.73
738.987
539.154
396.131
291.545
216.399
163.387
126.163
99.7744
80.716
66.6379
56.0005
47.7951
41.3514
36.2146
32.0688
28.689
25.9115
23.6146
21.7062
20.1153
18.7865
17.676
16.7484
15.975
15.332
14.7995
14.3604
14.0001
13.7059
13.4667
13.273
13.1164
12.9899
12.8878
12.8051
12.738
12.6833
12.6387
12.6021
12.5722
12.5478
12.528
12.5123
12.5001
12.4911
12.4852
12.4821
4358.34
1716.6
1051.43
737.277
539.098
397.311
293.285
218.152
164.882
127.338
100.67
81.3953
67.1596
56.4094
48.1225
41.6187
36.4363
32.2546
28.8457
26.044
23.7264
21.7999
20.193
18.85
17.7266
16.7874
16.0036
15.3511
14.8101
14.3634
13.9965
13.6965
13.4523
13.2543
13.0942
12.9649
12.8605
12.776
12.7074
12.6516
12.6061
12.5689
12.5384
12.5136
12.4935
12.4776
12.4652
12.4561
12.4501
12.447
4348.5
1711.7
1048.09
735.501
538.933
398.367
294.927
219.846
166.348
128.503
101.562
82.0743
67.6815
56.8179
48.4491
41.8848
36.6565
32.4389
29.0011
26.1752
23.837
21.8927
20.27
18.9129
17.7769
16.8263
16.0321
15.3703
14.8209
14.3667
13.9931
13.6873
13.4381
13.236
13.0724
12.9402
12.8334
12.7471
12.677
12.6201
12.5737
12.5358
12.5048
12.4796
12.4592
12.443
12.4304
12.4212
12.4151
12.412
4338.48
1706.71
1044.7
733.667
538.67
399.31
296.475
221.48
167.784
129.656
102.451
82.753
68.2035
57.2263
48.775
42.1499
36.8755
32.6219
29.1551
26.3052
23.9466
21.9846
20.3464
18.9754
17.827
16.8651
16.0606
15.3896
14.8318
14.3702
13.99
13.6784
13.4243
13.2179
13.0507
12.9157
12.8066
12.7183
12.6468
12.5887
12.5414
12.5028
12.4713
12.4456
12.4249
12.4085
12.3958
12.3864
12.3802
12.3771
4328.21
1701.63
1041.28
731.783
538.318
400.147
297.935
223.058
169.192
130.797
103.337
83.4314
68.726
57.6349
49.1005
42.4141
37.0933
32.8037
29.3079
26.4341
24.0553
22.0758
20.4222
19.0375
17.8767
16.9037
16.0892
15.409
14.843
14.374
13.9872
13.6699
13.4107
13.2001
13.0294
12.8914
12.7799
12.6898
12.6168
12.5575
12.5093
12.4699
12.4379
12.4118
12.3908
12.3741
12.3612
12.3517
12.3454
12.3423
4317.65
1696.47
1037.83
729.859
537.888
400.889
299.311
224.581
170.571
131.927
104.219
84.1096
69.2491
58.0438
49.4259
42.6777
37.3103
32.9844
29.4597
26.562
24.1631
22.1662
20.4973
19.0991
17.9261
16.9421
16.1177
15.4285
14.8543
14.3779
13.9846
13.6616
13.3975
13.1826
13.0083
12.8674
12.7535
12.6614
12.5869
12.5264
12.4773
12.4372
12.4046
12.3781
12.3568
12.3398
12.3267
12.3171
12.3108
12.3076
4306.75
1691.24
1034.37
727.904
537.391
401.544
300.611
226.053
171.922
133.045
105.098
84.788
69.7732
58.4534
49.7514
42.941
37.5267
33.1644
29.6106
26.6891
24.2701
22.256
20.572
19.1604
17.9754
16.9805
16.1462
15.448
14.8658
14.3821
13.9824
13.6536
13.3845
13.1654
12.9875
12.8436
12.7273
12.6333
12.5572
12.4955
12.4454
12.4047
12.3715
12.3445
12.3229
12.3057
12.2924
12.2827
12.2762
12.273
4295.54
1685.9
1030.88
725.909
536.831
402.127
301.851
227.488
173.259
134.161
105.982
85.4728
70.303
58.8675
50.0802
43.2065
37.7443
33.3451
29.7619
26.8164
24.3772
22.3458
20.6468
19.2217
18.0247
17.019
16.1749
15.4678
14.8775
14.3866
13.9804
13.6458
13.3718
13.1484
12.9669
12.82
12.7012
12.6053
12.5276
12.4647
12.4137
12.3721
12.3384
12.311
12.289
12.2716
12.2581
12.2483
12.2418
12.2385
4283.98
1680.4
1027.3
723.857
536.206
402.644
303.043
228.901
174.593
135.287
106.878
86.1699
70.8433
59.2898
50.4152
43.4765
37.9653
33.5282
29.9149
26.945
24.4854
22.4364
20.7221
19.2836
18.0746
17.058
16.204
15.488
14.8896
14.3914
13.9787
13.6384
13.3593
13.1316
12.9465
12.7965
12.6753
12.5773
12.4981
12.4339
12.3819
12.3396
12.3053
12.2775
12.2552
12.2375
12.2239
12.214
12.2074
12.2041
4271.9
1674.74
1023.67
721.753
535.52
403.096
304.183
230.283
175.917
136.415
107.784
86.877
71.3924
59.7192
50.7554
43.7503
38.189
33.7132
30.0693
27.0745
24.5942
22.5276
20.798
19.3459
18.1248
17.0973
16.2334
15.5085
14.902
14.3965
13.9772
13.6312
13.347
13.1149
12.9261
12.7731
12.6494
12.5494
12.4685
12.4031
12.3501
12.3071
12.2723
12.2441
12.2214
12.2035
12.1898
12.1798
12.1731
12.1698
4259.32
1668.95
1019.98
719.605
534.774
403.481
305.267
231.631
177.227
137.543
108.694
87.5913
71.9484
60.1542
51.0999
44.0272
38.4148
33.8996
30.2247
27.2047
24.7034
22.6191
20.8741
19.4085
18.1752
17.1369
16.2631
15.5293
14.9147
14.4019
13.9761
13.6242
13.335
13.0985
12.906
12.7499
12.6236
12.5216
12.4391
12.3724
12.3184
12.2747
12.2393
12.2106
12.1877