/*--------------------------------*- C++ -*----------------------------------*\
| =========                 |                                                 |
| \\      /  F ield         | OpenFOAM: The Open Source CFD Toolbox           |
|  \\    /   O peration     | Version:  2.2.x                                 |
|   \\  /    A nd           | Web:      www.OpenFOAM.org                      |
|    \\/     M anipulation  |                                                 |
\*---------------------------------------------------------------------------*/
FoamFile
{
    version     2.0;
    format      ascii;
    class       volScalarField;
    location    "1000";
    object      nut;
}
// * * * * * * * * * * * * * * * * * * * * * * * * * * * * * * * * * * * * * //

dimensions      [0 2 -1 0 0 0 0];

internalField   nonuniform List<scalar> 
5000
(
1.61802e-05
7.09091e-05
0.000238745
0.000497292
0.000692092
0.000794852
0.000839827
0.000856589
0.000861275
0.000861363
0.000860007
0.000858427
0.000857031
0.000855908
0.000855042
0.000854382
0.000853881
0.000853498
0.000853203
0.000852973
0.000852792
0.000852649
0.000852533
0.00085244
0.000852363
0.0008523
0.000852248
0.000852204
0.000852167
0.000852136
0.00085211
0.000852087
0.000852068
0.000852052
0.000852038
0.000852025
0.000852015
0.000852006
0.000851998
0.000851991
0.000851985
0.00085198
0.000851976
0.000851972
0.000851969
0.000851966
0.000851964
0.000851963
0.000851962
0.000851961
2.04096e-05
3.93072e-05
0.000119899
0.000302185
0.000510482
0.000675794
0.000778642
0.00083253
0.000856597
0.000865066
0.000866364
0.000864864
0.0008626
0.000860409
0.000858563
0.0008571
0.000855971
0.000855109
0.000854451
0.000853945
0.000853554
0.000853247
0.000853004
0.000852809
0.000852652
0.000852524
0.000852418
0.000852331
0.000852258
0.000852197
0.000852145
0.000852101
0.000852064
0.000852032
0.000852005
0.000851981
0.000851961
0.000851943
0.000851928
0.000851915
0.000851903
0.000851894
0.000851885
0.000851878
0.000851872
0.000851867
0.000851863
0.00085186
0.000851858
0.000851857
2.33929e-05
2.90935e-05
7.8205e-05
0.000207738
0.000386484
0.000563716
0.000700611
0.000788887
0.000837886
0.000861029
0.000869456
0.000870564
0.000868606
0.00086575
0.000862959
0.00086058
0.000858675
0.000857196
0.00085606
0.000855191
0.000854522
0.000854003
0.000853596
0.000853275
0.000853017
0.000852809
0.000852639
0.000852499
0.000852384
0.000852287
0.000852205
0.000852137
0.000852078
0.000852029
0.000851986
0.00085195
0.000851918
0.000851891
0.000851868
0.000851847
0.00085183
0.000851815
0.000851802
0.000851791
0.000851782
0.000851774
0.000851768
0.000851763
0.000851759
0.000851757
2.55353e-05
2.43247e-05
5.79531e-05
0.000154604
0.000303017
0.000471268
0.000621466
0.000733825
0.000806586
0.000847589
0.000867067
0.000873822
0.000874028
0.000871437
0.000868054
0.00086481
0.000862049
0.000859832
0.000858102
0.00085677
0.000855746
0.000854955
0.000854341
0.000853859
0.000853476
0.00085317
0.000852921
0.000852718
0.000852551
0.000852412
0.000852296
0.000852198
0.000852115
0.000852045
0.000851985
0.000851934
0.000851889
0.000851851
0.000851819
0.00085179
0.000851766
0.000851745
0.000851727
0.000851712
0.000851699
0.000851688
0.000851679
0.000851672
0.000851668
0.000851665
2.70423e-05
2.19243e-05
4.66669e-05
0.000122159
0.000245914
0.000398543
0.000549143
0.00067489
0.00076646
0.000825216
0.000858061
0.000873213
0.000877764
0.000876812
0.000873544
0.000869706
0.000866122
0.000863093
0.000860661
0.000858759
0.000857289
0.000856155
0.000855277
0.000854593
0.000854053
0.000853624
0.000853279
0.000852999
0.000852769
0.00085258
0.000852422
0.00085229
0.000852178
0.000852084
0.000852004
0.000851935
0.000851876
0.000851826
0.000851782
0.000851745
0.000851713
0.000851685
0.000851661
0.000851641
0.000851624
0.00085161
0.000851599
0.00085159
0.000851584
0.00085158
2.80186e-05
2.06861e-05
3.98924e-05
0.000101379
0.000206222
0.000342467
0.000486609
0.000617287
0.000721567
0.000795641
0.000842325
0.000867766
0.000878752
0.000881086
0.000878974
0.000875075
0.000870864
0.000867031
0.000863819
0.000861245
0.000859229
0.000857666
0.000856456
0.000855516
0.000854779
0.000854197
0.000853732
0.000853357
0.000853051
0.0008528
0.000852592
0.000852419
0.000852273
0.00085215
0.000852046
0.000851957
0.000851882
0.000851817
0.000851761
0.000851713
0.000851672
0.000851637
0.000851607
0.000851581
0.00085156
0.000851542
0.000851528
0.000851517
0.000851509
0.000851505
2.85319e-05
2.00608e-05
3.56469e-05
8.7654e-05
0.000178235
0.000299552
0.000434182
0.000563983
0.000675282
0.000761069
0.000820507
0.000857021
0.000876081
0.000883381
0.00088372
0.000880572
0.00087614
0.000871641
0.000867637
0.000864309
0.000861647
0.00085956
0.000857937
0.000856676
0.000855692
0.000854918
0.000854303
0.00085381
0.000853411
0.000853085
0.000852816
0.000852593
0.000852406
0.000852249
0.000852117
0.000852004
0.000851908
0.000851827
0.000851757
0.000851697
0.000851645
0.000851601
0.000851564
0.000851533
0.000851506
0.000851485
0.000851467
0.000851454
0.000851445
0.00085144
2.86429e-05
1.97778e-05
3.29531e-05
7.84387e-05
0.00015827
0.000266735
0.000390962
0.000516315
0.000630037
0.000723681
0.00079376
0.00084104
0.000869114
0.000882835
0.000887023
0.000885676
0.00088167
0.00087682
0.000872118
0.00086801
0.00086462
0.000861913
0.000859787
0.000858129
0.000856835
0.000855821
0.00085502
0.000854381
0.000853866
0.000853448
0.000853105
0.000852822
0.000852585
0.000852388
0.000852221
0.00085208
0.000851961
0.000851859
0.000851772
0.000851698
0.000851635
0.000851581
0.000851535
0.000851497
0.000851465
0.000851439
0.000851418
0.000851403
0.000851392
0.000851386
2.84204e-05
1.9703e-05
3.13073e-05
7.22759e-05
0.000143944
0.000241597
0.000355652
0.000474631
0.000587437
0.000685433
0.000763559
0.000820429
0.000857662
0.000878795
0.00088812
0.000889748
0.000887027
0.000882343
0.000877187
0.00087236
0.000868205
0.000864795
0.000862075
0.000859936
0.000858262
0.00085695
0.000855917
0.000855097
0.000854439
0.000853908
0.000853474
0.000853117
0.000852821
0.000852573
0.000852366
0.000852191
0.000852044
0.000851918
0.000851811
0.000851721
0.000851643
0.000851578
0.000851523
0.000851476
0.000851438
0.000851406
0.000851382
0.000851363
0.000851351
0.000851344
2.79323e-05
1.97839e-05
3.04811e-05
6.83715e-05
0.000133791
0.000222472
0.000327194
0.000439087
0.00054886
0.000648396
0.000731932
0.000796594
0.000842288
0.000871095
0.000886412
0.000892052
0.000891543
0.000887699
0.000882495
0.000877142
0.000872274
0.000868138
0.000864764
0.000862075
0.000859957
0.000858295
0.000856986
0.000855951
0.000855124
0.000854459
0.000853919
0.000853476
0.00085311
0.000852806
0.000852552
0.000852338
0.000852158
0.000852005
0.000851876
0.000851766
0.000851673
0.000851594
0.000851527
0.000851471
0.000851425
0.000851388
0.000851359
0.000851336
0.000851322
0.000851313
2.76195e-05
1.99303e-05
3.04073e-05
6.716e-05
0.00012976
0.000213993
0.000313634
0.000421098
0.000528195
0.000627403
0.000712938
0.000781375
0.000831759
0.000865279
0.000884629
0.000893237
0.000894561
0.000891579
0.000886534
0.000880913
0.00087557
0.000870902
0.000867023
0.000863895
0.000861413
0.000859457
0.000857917
0.000856698
0.000855727
0.000854947
0.000854314
0.000853797
0.000853371
0.000853017
0.000852722
0.000852474
0.000852265
0.000852088
0.000851939
0.000851812
0.000851704
0.000851613
0.000851537
0.000851473
0.00085142
0.000851377
0.000851344
0.000851319
0.000851303
0.000851294
2.72763e-05
2.00842e-05
3.04253e-05
6.62311e-05
0.000126502
0.000207089
0.000302527
0.000406199
0.000510774
0.000609261
0.000695971
0.000767158
0.000821273
0.000858802
0.000881816
0.000893326
0.000896622
0.000894732
0.000890082
0.000884387
0.000878708
0.000873596
0.000869263
0.000865722
0.000862889
0.000860646
0.000858874
0.000857472
0.000856356
0.00085546
0.000854735
0.000854142
0.000853655
0.000853251
0.000852913
0.000852631
0.000852392
0.000852191
0.00085202
0.000851876
0.000851753
0.00085165
0.000851562
0.000851489
0.000851429
0.00085138
0.000851342
0.000851314
0.000851295
0.000851286
2.69066e-05
2.02736e-05
3.05186e-05
6.53755e-05
0.000123387
0.000200501
0.000291924
0.000391882
0.000493824
0.000591277
0.00067871
0.00075218
0.000809658
0.000851016
0.000877723
0.000892334
0.000897896
0.000897403
0.000893407
0.000887825
0.000881922
0.000876421
0.00087165
0.00086769
0.000864488
0.000861938
0.000859917
0.000858317
0.000857042
0.000856021
0.000855195
0.000854522
0.000853969
0.00085351
0.000853128
0.000852808
0.000852539
0.000852311
0.000852118
0.000851954
0.000851816
0.000851699
0.0008516
0.000851517
0.000851449
0.000851394
0.000851351
0.000851319
0.000851298
0.000851288
2.6523e-05
2.05166e-05
3.07094e-05
6.46312e-05
0.000120464
0.000194271
0.000281848
0.000378164
0.000477375
0.000573519
0.000661274
0.000736591
0.000797068
0.000842044
0.000872422
0.000890281
0.000898363
0.000899559
0.000896482
0.000891213
0.000885216
0.000879393
0.000874206
0.000869821
0.000866234
0.000863355
0.000861064
0.000859245
0.000857798
0.000856638
0.000855702
0.000854941
0.000854316
0.000853799
0.000853368
0.000853007
0.000852704
0.000852448
0.000852231
0.000852047
0.000851892
0.00085176
0.000851649
0.000851556
0.00085148
0.000851418
0.00085137
0.000851334
0.000851311
0.000851299
2.61277e-05
2.08255e-05
3.10137e-05
6.40241e-05
0.000117774
0.000188455
0.000272373
0.000365144
0.000461568
0.000556174
0.000643887
0.000720628
0.000783718
0.000832044
0.000865991
0.000887164
0.000897962
0.000901105
0.000899206
0.000894466
0.000888527
0.000882472
0.000876909
0.000872109
0.000868125
0.000864898
0.000862316
0.000860261
0.000858624
0.000857313
0.000856257
0.000855399
0.000854696
0.000854115
0.000853632
0.000853228
0.000852889
0.000852602
0.00085236
0.000852154
0.00085198
0.000851833
0.000851709
0.000851606
0.000851521
0.000851452
0.000851398
0.000851358
0.000851332
0.000851318
2.57252e-05
2.12099e-05
3.14436e-05
6.35686e-05
0.000115337
0.000183081
0.000263539
0.000352887
0.000446506
0.000539393
0.000626743
0.000704511
0.000769819
0.000821186
0.000858536
0.000883015
0.000896656
0.000901962
0.000901483
0.000897492
0.000891781
0.000885604
0.000879726
0.000874531
0.00087015
0.000866561
0.00086367
0.000861361
0.000859519
0.000858045
0.000856858
0.000855895
0.000855107
0.000854458
0.000853919
0.000853469
0.000853091
0.000852772
0.000852502
0.000852274
0.00085208
0.000851917
0.00085178
0.000851665
0.00085157
0.000851494
0.000851434
0.000851389
0.00085136
0.000851346
2.53211e-05
2.16774e-05
3.20094e-05
6.32735e-05
0.000113159
0.000178153
0.000255356
0.000341425
0.000432257
0.000523291
0.000610006
0.000688436
0.000755579
0.000809657
0.000850191
0.000877902
0.000894451
0.000902084
0.00090324
0.000900212
0.000894908
0.000888737
0.000882619
0.000877067
0.000872296
0.000868338
0.000865125
0.000862545
0.000860482
0.000858831
0.000857503
0.000856428
0.000855549
0.000854827
0.000854228
0.000853728
0.000853309
0.000852955
0.000852657
0.000852405
0.000852191
0.00085201
0.000851859
0.000851732
0.000851627
0.000851543
0.000851477
0.000851428
0.000851396
0.000851379
2.49206e-05
2.22355e-05
3.27198e-05
6.31444e-05
0.000111239
0.000173665
0.000247819
0.000330765
0.00041886
0.000507952
0.000593808
0.000672577
0.00074119
0.000797641
0.00084111
0.000871925
0.000891385
0.000901456
0.000904426
0.00090256
0.000897842
0.000891815
0.000885549
0.000879688
0.000874548
0.000870221
0.000866674
0.00086381
0.000861513
0.000859672
0.000858193
0.000856996
0.00085602
0.000855219
0.000854556
0.000854004
0.000853541
0.000853152
0.000852824
0.000852546
0.000852311
0.000852112
0.000851945
0.000851806
0.000851691
0.000851598
0.000851526
0.000851472
0.000851437
0.000851419
2.45287e-05
2.28911e-05
3.3582e-05
6.31854e-05
0.000109575
0.000169604
0.00024091
0.0003209
0.000406332
0.000493432
0.00057825
0.000657077
0.000726824
0.000785317
0.000831448
0.000865199
0.00088752
0.00090009
0.000905012
0.000904483
0.000900524
0.000894785
0.000888474
0.000882367
0.000876886
0.000872198
0.000868312
0.000865152
0.000862608
0.000860566
0.000858924
0.000857598
0.000856519
0.000855634
0.000854903
0.000854296
0.000853787
0.00085336
0.000853
0.000852695
0.000852438
0.000852221
0.000852038
0.000851886
0.000851761
0.000851659
0.00085158
0.000851522
0.000851483
0.000851463
2.41497e-05
2.36505e-05
3.46013e-05
6.33987e-05
0.000108161
0.000165951
0.000234604
0.000311809
0.000394672
0.000479764
0.000563407
0.000642053
0.000712631
0.000772847
0.00082136
0.000857848
0.000882937
0.000898019
0.00090499
0.000905945
0.000902904
0.000897597
0.000891352
0.000885071
0.00087929
0.000874256
0.000870032
0.000866568
0.000863765
0.00086151
0.000859696
0.000858232
0.000857043
0.00085607
0.000855267
0.000854601
0.000854045
0.000853578
0.000853185
0.000852852
0.000852572
0.000852335
0.000852137
0.000851971
0.000851835
0.000851724
0.000851638
0.000851574
0.000851532
0.000851511
2.37879e-05
2.45194e-05
3.57815e-05
6.37858e-05
0.000106991
0.000162688
0.000228872
0.000303464
0.000383866
0.000466961
0.000549332
0.000627598
0.000698737
0.000760378
0.000810995
0.000850002
0.000877731
0.000895295
0.000904371
0.000906926
0.000904945
0.000900207
0.00089414
0.000887768
0.000881734
0.000876379
0.000871822
0.00086805
0.00086498
0.000862502
0.000860507
0.000858897
0.000857591
0.000856524
0.000855646
0.000854919
0.000854312
0.000853804
0.000853376
0.000853015
0.000852711
0.000852454
0.000852239
0.000852059
0.000851912
0.000851792
0.000851699
0.00085163
0.000851584
0.000851561
2.3447e-05
2.55023e-05
3.71238e-05
6.43472e-05
0.000106059
0.000159797
0.000223686
0.000295831
0.000373892
0.000455023
0.000536057
0.000613782
0.000685247
0.000748039
0.000800489
0.000841788
0.000872003
0.000891984
0.000903183
0.000907421
0.00090662
0.000902579
0.000896802
0.000890423
0.000884195
0.000878549
0.000873671
0.000869592
0.000866248
0.000863539
0.000861354
0.00085959
0.000858161
0.000856995
0.000856038
0.000855247
0.000854588
0.000854037
0.000853573
0.000853183
0.000852854
0.000852577
0.000852344
0.00085215
0.000851991
0.000851862
0.000851761
0.000851687
0.000851637
0.000851612
2.31305e-05
2.66018e-05
3.86269e-05
6.50823e-05
0.000105359
0.00015726
0.000219015
0.000288878
0.00036472
0.000443942
0.000523602
0.000600659
0.000672248
0.000735943
0.000789968
0.000833329
0.000865858
0.00088816
0.000901468
0.00090744
0.000907914
0.000904682
0.000899305
0.000893007
0.000886646
0.000880746
0.000875566
0.000871184
0.000867564
0.000864617
0.000862234
0.00086031
0.000858751
0.000857482
0.000856442
0.000855584
0.000854871
0.000854275
0.000853775
0.000853354
0.000852999
0.000852701
0.000852451
0.000852243
0.000852071
0.000851933
0.000851825
0.000851745
0.000851691
0.000851664
2.28416e-05
2.78181e-05
4.02867e-05
6.59896e-05
0.000104887
0.000155061
0.000214833
0.00028257
0.000356321
0.0004337
0.000511974
0.000588266
0.000659808
0.000724185
0.000779544
0.00082474
0.000859401
0.000883906
0.000899278
0.000907005
0.000908825
0.000906497
0.000901619
0.000895489
0.000889061
0.000882951
0.000877493
0.000872817
0.000868921
0.000865731
0.000863145
0.000861053
0.00085936
0.000857983
0.000856856
0.000855928
0.000855158
0.000854516
0.000853979
0.000853526
0.000853146
0.000852826
0.000852558
0.000852335
0.000852151
0.000852003
0.000851888
0.000851802
0.000851745
0.000851716
2.25829e-05
2.91485e-05
4.20961e-05
6.70662e-05
0.000104638
0.000153187
0.000211116
0.000276877
0.000348665
0.000424277
0.000501171
0.000576629
0.000647983
0.000712846
0.000769317
0.000816128
0.000852733
0.000879307
0.000896672
0.000906149
0.000909359
0.000908014
0.000903722
0.000897844
0.000891416
0.000885142
0.000879434
0.000874478
0.00087031
0.000866877
0.000864081
0.000861817
0.000859984
0.000858495
0.000857279
0.000856278
0.00085545
0.000854761
0.000854184
0.0008537
0.000853293
0.000852951
0.000852665
0.000852427
0.000852231
0.000852073
0.00085195
0.000851858
0.000851798
0.000851767
2.23567e-05
3.05867e-05
4.40445e-05
6.83078e-05
0.000104607
0.000151626
0.000207842
0.00027177
0.000341721
0.000415652
0.000491189
0.000565765
0.000636816
0.000701996
0.000759375
0.000807592
0.000845951
0.000874447
0.000893716
0.000904911
0.000909533
0.000909229
0.0009056
0.000900051
0.000893689
0.000887301
0.000881375
0.000876157
0.000871724
0.000868046
0.00086504
0.000862599
0.000860622
0.000859017
0.000857708
0.000856633
0.000855745
0.000855006
0.00085439
0.000853873
0.000853439
0.000853075
0.00085277
0.000852517
0.000852309
0.000852141
0.00085201
0.000851913
0.000851848
0.000851816
2.21647e-05
3.2123e-05
4.61188e-05
6.97087e-05
0.000104791
0.00015037
0.000204995
0.000267225
0.000335463
0.000407802
0.000482019
0.000555685
0.000626341
0.000691692
0.000749795
0.00079922
0.000839147
0.000869412
0.000890479
0.000903341
0.000909373
0.000910147
0.000907243
0.000902091
0.000895858
0.000889407
0.000883298
0.000877839
0.000873152
0.000869234
0.000866015
0.000863396
0.000861271
0.000859547
0.000858141
0.00085699
0.00085604
0.000855252
0.000854595
0.000854045
0.000853584
0.000853197
0.000852874
0.000852605
0.000852385
0.000852207
0.000852068
0.000851965
0.000851897
0.000851862
2.20079e-05
3.37445e-05
4.83031e-05
7.12618e-05
0.000105187
0.000149412
0.00020256
0.000263222
0.00032987
0.00040071
0.000473652
0.000546397
0.000616586
0.000681982
0.000740646
0.000791095
0.000832408
0.000864284
0.00088703
0.000901489
0.000908911
0.000910782
0.000908649
0.000903952
0.000897908
0.000891443
0.000885188
0.000879513
0.000874585
0.000870433
0.000867003
0.000864202
0.000861928
0.000860082
0.000858579
0.000857348
0.000856336
0.000855497
0.000854798
0.000854215
0.000853726
0.000853316
0.000852974
0.00085269
0.000852457
0.000852269
0.000852123
0.000852014
0.000851942
0.000851906
2.1887e-05
3.54356e-05
5.058e-05
7.29589e-05
0.000105793
0.00014875
0.000200531
0.000259748
0.000324924
0.00039436
0.000466081
0.000537907
0.000607575
0.00067291
0.000731988
0.00078329
0.000825815
0.000859142
0.00088344
0.000899411
0.000908183
0.000911153
0.000909821
0.000905628
0.000899823
0.000893392
0.00088703
0.000881165
0.000876013
0.000871634
0.000867996
0.000865015
0.00086259
0.00086062
0.000859017
0.000857707
0.00085663
0.000855739
0.000854999
0.000854382
0.000853865
0.000853432
0.000853072
0.000852772
0.000852527
0.000852329
0.000852174
0.00085206
0.000851984
0.000851946
2.1802e-05
3.71795e-05
5.29323e-05
7.47921e-05
0.000106607
0.000148385
0.000198906
0.000256796
0.000320616
0.000388742
0.000459301
0.000530219
0.000599327
0.000664511
0.000723872
0.000775871
0.00081944
0.00085406
0.000879778
0.000897166
0.000907232
0.000911285
0.00091077
0.000907117
0.000901597
0.000895244
0.00088881
0.000882783
0.000877425
0.000872831
0.000868991
0.00086583
0.000863253
0.000861159
0.000859455
0.000858064
0.000856922
0.000855979
0.000855197
0.000854545
0.000854
0.000853545
0.000853165
0.00085285
0.000852592
0.000852384
0.000852222
0.000852102
0.000852023
0.000851983
2.17524e-05
3.89977e-05
5.53849e-05
7.67935e-05
0.000107666
0.000148347
0.000197704
0.000254371
0.000316935
0.000383833
0.000453281
0.000523302
0.000591814
0.000656768
0.000716296
0.000768848
0.000813308
0.000849074
0.000876083
0.00089479
0.000906092
0.000911203
0.000911513
0.000908427
0.000903231
0.000896996
0.000890527
0.000884365
0.00087882
0.000874022
0.000869984
0.000866647
0.000863919
0.000861699
0.000859893
0.000858419
0.000857211
0.000856216
0.000855391
0.000854704
0.000854131
0.000853653
0.000853254
0.000852924
0.000852653
0.000852436
0.000852266
0.00085214
0.000852057
0.000852015
2.17412e-05
4.08706e-05
5.79648e-05
7.89895e-05
0.000108991
0.000148647
0.000196921
0.00025245
0.000313839
0.000379576
0.000447954
0.000517084
0.000584967
0.000649621
0.000709212
0.000762192
0.000807407
0.000844185
0.000872369
0.000892305
0.000904783
0.000910928
0.000912065
0.00090957
0.000904732
0.000898653
0.000892182
0.000885912
0.000880198
0.000875208
0.000870979
0.000867468
0.000864588
0.000862241
0.000860332
0.000858774
0.000857499
0.00085645
0.000855582
0.00085486
0.000854258
0.000853757
0.000853339
0.000852994
0.000852711
0.000852483
0.000852306
0.000852174
0.000852087
0.000852044
2.17726e-05
4.26987e-05
6.05417e-05
8.13042e-05
0.000110525
0.000149219
0.000196477
0.000250944
0.000311233
0.000375872
0.000443221
0.000511473
0.000578707
0.000643006
0.000702576
0.000755875
0.000801726
0.000839397
0.000868648
0.000889727
0.000903323
0.000910473
0.000912435
0.000910549
0.000906101
0.000900211
0.000893771
0.000887419
0.000881555
0.000876385
0.000871973
0.00086829
0.000865259
0.000862785
0.000860771
0.000859129
0.000857786
0.000856681
0.000855769
0.000855012
0.000854382
0.000853857
0.00085342
0.000853059
0.000852764
0.000852526
0.000852341
0.000852204
0.000852113
0.000852068
2.18439e-05
4.44446e-05
6.31031e-05
8.36613e-05
0.000112148
0.000149954
0.000196273
0.000249755
0.000309017
0.00037262
0.000438984
0.000506374
0.000572948
0.00063685
0.000696329
0.000749857
0.000796241
0.0008347
0.000864923
0.000887066
0.000901725
0.00090985
0.000912632
0.000911369
0.000907336
0.000901668
0.00089529
0.000888883
0.000882889
0.000877552
0.000872963
0.000869112
0.000865932
0.00086333
0.00086121
0.000859482
0.00085807
0.00085691
0.000855953
0.00085516
0.000854501
0.000853953
0.000853497
0.00085312
0.000852812
0.000852565
0.000852372
0.000852229
0.000852135
0.000852088
2.19477e-05
4.60738e-05
6.56078e-05
8.60486e-05
0.00011385
0.000150794
0.000196209
0.000248755
0.000307044
0.000369662
0.000435081
0.000501633
0.000567546
0.000631025
0.000690364
0.000744053
0.000790887
0.000830049
0.000861161
0.000884301
0.000899975
0.000909051
0.00091265
0.000912026
0.000908435
0.000903021
0.000896736
0.000890299
0.000884197
0.000878707
0.00087395
0.000869935
0.000866606
0.000863877
0.00086165
0.000859835
0.000858352
0.000857136
0.000856134
0.000855305
0.000854617
0.000854044
0.000853569
0.000853177
0.000852857
0.000852599
0.000852398
0.00085225
0.000852152
0.000852103
2.20758e-05
4.75611e-05
6.80196e-05
8.84319e-05
0.000115602
0.000151711
0.000196253
0.000247903
0.000305267
0.000366947
0.000431459
0.000497197
0.000562453
0.000625492
0.000684651
0.000738442
0.000785656
0.000825443
0.000857371
0.000881444
0.000898088
0.000908088
0.000912498
0.000912523
0.000909397
0.000904266
0.000898104
0.000891666
0.000885475
0.000879847
0.00087493
0.000870757
0.000867282
0.000864425
0.00086209
0.000860187
0.000858633
0.00085736
0.000856312
0.000855446
0.000854728
0.000854132
0.000853637
0.00085323
0.000852896
0.000852629
0.000852421
0.000852267
0.000852165
0.000852114
2.22203e-05
4.88907e-05
7.03092e-05
9.07801e-05
0.000117377
0.000152679
0.000196372
0.000247161
0.000303642
0.000364428
0.000428072
0.00049302
0.000557627
0.000620214
0.000679161
0.000733005
0.000780536
0.00082088
0.000853557
0.000878505
0.000896073
0.00090697
0.000912182
0.000912865
0.000910224
0.000905403
0.000899393
0.000892978
0.00088672
0.000880969
0.000875904
0.000871576
0.000867958
0.000864973
0.000862531
0.000860539
0.000858913
0.000857581
0.000856487
0.000855584
0.000854836
0.000854215
0.000853701
0.000853278
0.000852932
0.000852655
0.000852439
0.000852279
0.000852174
0.000852121
2.23745e-05
5.00558e-05
7.24543e-05
9.30662e-05
0.000119152
0.000153676
0.000196542
0.000246499
0.000302135
0.000362065
0.000424875
0.000489058
0.000553026
0.000615154
0.000673866
0.000727722
0.000775518
0.000816359
0.000849723
0.000875491
0.00089394
0.000905707
0.00091171
0.000913056
0.000910918
0.000906431
0.0009006
0.000894235
0.00088793
0.000882072
0.000876868
0.000872394
0.000868634
0.000865523
0.000862973
0.000860891
0.000859191
0.000857801
0.000856659
0.000855718
0.000854939
0.000854295
0.000853761
0.000853322
0.000852963
0.000852676
0.000852452
0.000852288
0.000852179
0.000852124
2.25326e-05
5.10563e-05
7.4439e-05
9.52671e-05
0.000120906
0.000154682
0.000196738
0.000245888
0.00030071
0.000359822
0.000421831
0.000485274
0.000548616
0.000610282
0.000668738
0.000722573
0.000770587
0.000811872
0.000845871
0.000872409
0.000891699
0.000904308
0.000911092
0.000913102
0.000911481
0.000907352
0.000901724
0.000895433
0.000889103
0.000883154
0.000877822
0.000873207
0.00086931
0.000866074
0.000863415
0.000861242
0.000859469
0.000858018
0.000856829
0.000855849
0.00085504
0.000854371
0.000853817
0.000853362
0.000852991
0.000852693
0.000852462
0.000852292
0.000852179
0.000852122
2.26904e-05
5.18975e-05
7.62537e-05
9.7364e-05
0.00012262
0.000155679
0.000196943
0.000245304
0.000299341
0.000357666
0.000418904
0.000481633
0.000544361
0.000605566
0.000663753
0.000717539
0.000765733
0.000807416
0.000842
0.000869262
0.000889356
0.000902782
0.000910334
0.00091301
0.000911919
0.000908166
0.000902766
0.000896572
0.000890238
0.000884213
0.000878765
0.000874016
0.000869985
0.000866625
0.000863858
0.000861594
0.000859746
0.000858234
0.000856996
0.000855978
0.000855137
0.000854443
0.00085387
0.000853398
0.000853014
0.000852707
0.000852468
0.000852292
0.000852176
0.000852117
2.28445e-05
5.25885e-05
7.78936e-05
9.93422e-05
0.000124277
0.000156654
0.000197138
0.000244726
0.000298
0.000355567
0.000416064
0.000478101
0.000540232
0.000600979
0.000658888
0.000712602
0.000760943
0.000802984
0.000838109
0.000866055
0.000886917
0.000901136
0.000909442
0.000912785
0.000912234
0.000908876
0.000903726
0.000897651
0.000891332
0.000885248
0.000879695
0.00087482
0.000870659
0.000867178
0.000864303
0.000861947
0.000860022
0.00085845
0.000857162
0.000856104
0.000855232
0.000854512
0.000853919
0.000853431
0.000853034
0.000852717
0.00085247
0.000852289
0.000852168
0.000852108
2.29923e-05
5.31409e-05
7.93583e-05
0.000101191
0.000125865
0.000157593
0.000197312
0.000244137
0.000296667
0.0003535
0.000413282
0.000474651
0.0005362
0.000596495
0.000654119
0.000707744
0.000756204
0.000798568
0.000834198
0.000862789
0.000884388
0.000899375
0.000908425
0.000912433
0.00091243
0.000909484
0.000904604
0.00089867
0.000892386
0.000886258
0.000880613
0.000875619
0.000871333
0.000867731
0.000864749
0.000862301
0.000860299
0.000858664
0.000857326
0.000856227
0.000855323
0.000854578
0.000853964
0.000853461
0.000853051
0.000852723
0.000852469
0.000852282
0.000852158
0.000852096
2.3132e-05
5.35677e-05
8.06509e-05
0.000102902
0.000127371
0.000158486
0.000197451
0.000243523
0.000295323
0.000351443
0.000410534
0.000471256
0.000532239
0.000592089
0.000649425
0.000702948
0.000751504
0.000794162
0.000830262
0.000859467
0.000881773
0.000897507
0.000907287
0.000911958
0.000912512
0.000909992
0.000905401
0.000899629
0.000893399
0.000887244
0.000881517
0.000876413
0.000872006
0.000868286
0.000865197
0.000862656
0.000860577
0.000858878
0.000857489
0.00085635
0.000855413
0.000854642
0.000854007
0.000853487
0.000853064
0.000852726
0.000852464
0.000852271
0.000852144
0.00085208
2.3262e-05
5.38825e-05
8.17771e-05
0.000104471
0.000128786
0.000159322
0.000197547
0.000242869
0.000293949
0.000349374
0.000407795
0.000467891
0.000528325
0.000587738
0.000644786
0.000698197
0.000746832
0.000789757
0.000826299
0.000856087
0.000879075
0.000895536
0.000906034
0.000911366
0.000912483
0.000910403
0.00090612
0.000900529
0.00089437
0.000888203
0.000882407
0.000877201
0.000872678
0.000868843
0.000865647
0.000863013
0.000860856
0.000859093
0.000857651
0.00085647
0.000855501
0.000854703
0.000854047
0.00085351
0.000853074
0.000852726
0.000852456
0.000852258
0.000852126
0.000852061
2.3381e-05
5.40989e-05
8.27443e-05
0.000105896
0.000130102
0.000160095
0.000197591
0.000242167
0.000292533
0.000347276
0.000405045
0.000464535
0.000524435
0.000583421
0.000640183
0.000693475
0.000742174
0.000785346
0.000822305
0.000852651
0.000876296
0.000893466
0.000904672
0.000910662
0.000912348
0.00091072
0.000906761
0.00090137
0.000895301
0.000889138
0.000883284
0.000877983
0.000873349
0.000869402
0.0008661
0.000863373
0.000861137
0.000859308
0.000857814
0.00085659
0.000855587
0.000854762
0.000854085
0.000853531
0.000853082
0.000852723
0.000852445
0.000852241
0.000852106
0.000852038
2.34879e-05
5.42304e-05
8.35616e-05
0.000107177
0.000131315
0.000160797
0.000197576
0.000241405
0.000291061
0.000345131
0.000402265
0.000461165
0.000520547
0.000579117
0.000635597
0.000688766
0.000737518
0.00078092
0.000818275
0.000849155
0.000873437
0.0008913
0.000903204
0.000909851
0.00091211
0.000910946
0.000907327
0.000902153
0.000896191
0.000890047
0.000884147
0.00087876
0.000874021
0.000869963
0.000866557
0.000863736
0.00086142
0.000859525
0.000857977
0.00085671
0.000855672
0.00085482
0.000854121
0.00085355
0.000853087
0.000852718
0.000852432
0.000852222
0.000852083
0.000852014
2.35816e-05
5.42898e-05
8.42392e-05
0.000108316
0.000132419
0.000161422
0.000197495
0.000240577
0.000289522
0.000342926
0.000399436
0.000457762
0.00051664
0.000574806
0.00063101
0.000684055
0.00073285
0.000776469
0.000814202
0.000845599
0.0008705
0.00088904
0.000901634
0.000908935
0.000911773
0.000911084
0.00090782
0.00090288
0.000897042
0.00089093
0.000884997
0.000879533
0.000874693
0.000870527
0.000867018
0.000864104
0.000861706
0.000859744
0.00085814
0.000856829
0.000855756
0.000854876
0.000854155
0.000853566
0.00085309
0.00085271
0.000852416
0.0008522
0.000852058
0.000851986
2.36608e-05
5.42895e-05
8.47878e-05
0.000109316
0.000133413
0.000161966
0.000197343
0.000239675
0.000287904
0.000340645
0.000396541
0.000454307
0.000512696
0.000570468
0.000626402
0.000679324
0.000728159
0.000771983
0.00081008
0.000841977
0.000867482
0.000886688
0.000899964
0.000907917
0.00091134
0.000911136
0.000908242
0.000903552
0.000897854
0.00089179
0.000885834
0.000880301
0.000875366
0.000871096
0.000867483
0.000864475
0.000861996
0.000859965
0.000858306
0.000856949
0.00085584
0.000854931
0.000854187
0.000853581
0.00085309
0.0008527
0.000852398
0.000852176
0.00085203
0.000851956
2.37239e-05
5.42414e-05
8.52189e-05
0.000110184
0.000134295
0.000162422
0.000197113
0.000238689
0.000286195
0.000338271
0.000393559
0.000450777
0.000508689
0.000566079
0.000621751
0.000674553
0.000723426
0.000767449
0.000805899
0.000838284
0.000864381
0.000884243
0.000898195
0.000906801
0.000910813
0.000911104
0.000908593
0.000904169
0.000898628
0.000892625
0.000886659
0.000881065
0.00087604
0.000871668
0.000867954
0.000864852
0.000862291
0.00086019
0.000858473
0.00085707
0.000855924
0.000854986
0.000854219
0.000853594
0.000853089
0.000852688
0.000852377
0.00085215
0.000851999
0.000851924
2.3768e-05