# Time	field	min	position(min)	max	position(max)
1001	Ua	0	(0 0.0093083 0)	0.063451	(0.0993241 0.0186384 -5.55433e-20)
1002	Ua	0	(0 0.0093083 0)	0.0865463	(0.0993241 0.0186384 -5.55433e-20)
1003	Ua	0	(0 0.0093083 0)	0.120233	(0.0979757 0.0187071 1.89038e-20)
1004	Ua	0	(0 0.0093083 0)	0.164768	(0.0979757 0.0187071 1.89038e-20)
1005	Ua	0	(0 0.0093083 0)	0.215848	(0.0966354 0.0188097 -3.73012e-20)
1006	Ua	0	(0 0.0093083 0)	0.256826	(0.0966354 0.0188097 -3.73012e-20)
1007	Ua	0	(0 0.0093083 0)	0.285019	(0.0966354 0.0188097 -3.73012e-20)
1008	Ua	0	(0 0.0093083 0)	0.304702	(0.0966354 0.0188097 -3.73012e-20)
1009	Ua	0	(0 0.0093083 0)	0.318887	(0.0966354 0.0188097 -3.73012e-20)
1010	Ua	0	(0 0.0093083 0)	0.329936	(0.0966354 0.0188097 -3.73012e-20)
1011	Ua	0	(0 0.0093083 0)	0.339108	(0.0966354 0.0188097 -3.73012e-20)
1012	Ua	0	(0 0.0093083 0)	0.346721	(0.0966354 0.0188097 -3.73012e-20)
1013	Ua	0	(0 0.0093083 0)	0.353021	(0.0966354 0.0188097 -3.73012e-20)
1014	Ua	0	(0 0.0093083 0)	0.358174	(0.0966354 0.0188097 -3.73012e-20)
1015	Ua	0	(0 0.0093083 0)	0.362474	(0.0966354 0.0188097 -3.73012e-20)
1016	Ua	0	(0 0.0093083 0)	0.366173	(0.0966354 0.0188097 -3.73012e-20)
1017	Ua	0	(0 0.0093083 0)	0.369412	(0.0966354 0.0188097 -3.73012e-20)
1018	Ua	0	(0 0.0093083 0)	0.372225	(0.0966354 0.0188097 -3.73012e-20)
1019	Ua	0	(0 0.0093083 0)	0.374636	(0.0966354 0.0188097 -3.73012e-20)
1020	Ua	0	(0 0.0093083 0)	0.37671	(0.0966354 0.0188097 -3.73012e-20)
1021	Ua	0	(0 0.0093083 0)	0.382069	(0.0761667 0.0135295 0)
1022	Ua	0	(0 0.0093083 0)	0.389793	(0.0761667 0.0135295 0)
1023	Ua	0	(0 0.0093083 0)	0.396545	(0.0761667 0.0135295 0)
1024	Ua	0	(0 0.0093083 0)	0.402435	(0.0761667 0.0135295 0)
1025	Ua	0	(0 0.0093083 0)	0.407579	(0.0761667 0.0135295 0)
1026	Ua	0	(0 0.0093083 0)	0.412083	(0.0761667 0.0135295 0)
1027	Ua	0	(0 0.0093083 0)	0.416028	(0.0761667 0.0135295 0)
1028	Ua	0	(0 0.0093083 0)	0.419479	(0.0761667 0.0135295 0)
1029	Ua	0	(0 0.0093083 0)	0.4225	(0.0761667 0.0135295 0)
1030	Ua	0	(0 0.0093083 0)	0.425154	(0.0761667 0.0135295 0)
1031	Ua	0	(0 0.0093083 0)	0.427492	(0.0761667 0.0135295 0)
1032	Ua	0	(0 0.0093083 0)	0.429554	(0.0761667 0.0135295 0)
1033	Ua	0	(0 0.0093083 0)	0.431376	(0.0761667 0.0135295 0)
1034	Ua	0	(0 0.0093083 0)	0.433128	(0.0749621 0.013582 -1.33482e-20)
1035	Ua	0	(0 0.0093083 0)	0.434684	(0.0749621 0.013582 -1.33482e-20)
1036	Ua	0	(0 0.0093083 0)	0.436072	(0.0749621 0.013582 -1.33482e-20)
1037	Ua	0	(0 0.0093083 0)	0.437309	(0.0749621 0.013582 -1.33482e-20)
1038	Ua	0	(0 0.0093083 0)	0.438412	(0.0749621 0.013582 -1.33482e-20)
1039	Ua	0	(0 0.0093083 0)	0.439399	(0.0749621 0.013582 -1.33482e-20)
1040	Ua	0	(0 0.0093083 0)	0.440286	(0.0749621 0.013582 -1.33482e-20)
1041	Ua	0	(0 0.0093083 0)	0.441084	(0.0749621 0.013582 -1.33482e-20)
1042	Ua	0	(0 0.0093083 0)	0.441804	(0.0749621 0.013582 -1.33482e-20)
1043	Ua	0	(0 0.0093083 0)	0.442455	(0.0749621 0.013582 -1.33482e-20)
1044	Ua	0	(0 0.0093083 0)	0.443045	(0.0749621 0.013582 -1.33482e-20)
1045	Ua	0	(0 0.0093083 0)	0.443581	(0.0749621 0.013582 -1.33482e-20)
1046	Ua	0	(0 0.0093083 0)	0.44407	(0.0749621 0.013582 -1.33482e-20)
1047	Ua	0	(0 0.0093083 0)	0.444516	(0.0749621 0.013582 -1.33482e-20)
1048	Ua	0	(0 0.0093083 0)	0.444924	(0.0749621 0.013582 -1.33482e-20)
1049	Ua	0	(0 0.0093083 0)	0.445299	(0.0749621 0.013582 -1.33482e-20)
1050	Ua	0	(0 0.0093083 0)	0.445643	(0.0749621 0.013582 -1.33482e-20)
1051	Ua	0	(0 0.0093083 0)	0.44596	(0.0749621 0.013582 -1.33482e-20)
1052	Ua	0	(0 0.0093083 0)	0.446253	(0.0749621 0.013582 -1.33482e-20)
1053	Ua	0	(0 0.0093083 0)	0.446524	(0.0749621 0.013582 -1.33482e-20)
1054	Ua	0	(0 0.0093083 0)	0.446776	(0.0749621 0.013582 -1.33482e-20)
1055	Ua	0	(0 0.0093083 0)	0.447009	(0.0749621 0.013582 -1.33482e-20)
1056	Ua	0	(0 0.0093083 0)	0.447227	(0.0749621 0.013582 -1.33482e-20)
1057	Ua	0	(0 0.0093083 0)	0.44743	(0.0749621 0.013582 -1.33482e-20)
1058	Ua	0	(0 0.0093083 0)	0.447619	(0.0749621 0.013582 -1.33482e-20)
1059	Ua	0	(0 0.0093083 0)	0.447796	(0.0749621 0.013582 -1.33482e-20)
1060	Ua	0	(0 0.0093083 0)	0.447962	(0.0749621 0.013582 -1.33482e-20)
1061	Ua	0	(0 0.0093083 0)	0.448118	(0.0749621 0.013582 -1.33482e-20)
1062	Ua	0	(0 0.0093083 0)	0.448264	(0.0749621 0.013582 -1.33482e-20)
1063	Ua	0	(0 0.0093083 0)	0.448402	(0.0749621 0.013582 -1.33482e-20)
1064	Ua	0	(0 0.0093083 0)	0.448531	(0.0749621 0.013582 -1.33482e-20)
1065	Ua	0	(0 0.0093083 0)	0.448653	(0.0749621 0.013582 -1.33482e-20)
1066	Ua	0	(0 0.0093083 0)	0.448768	(0.0749621 0.013582 -1.33482e-20)
1067	Ua	0	(0 0.0093083 0)	0.448877	(0.0749621 0.013582 -1.33482e-20)
1068	Ua	0	(0 0.0093083 0)	0.44898	(0.0749621 0.013582 -1.33482e-20)
1069	Ua	0	(0 0.0093083 0)	0.449077	(0.0749621 0.013582 -1.33482e-20)
1070	Ua	0	(0 0.0093083 0)	0.449169	(0.0749621 0.013582 -1.33482e-20)
1071	Ua	0	(0 0.0093083 0)	0.449256	(0.0749621 0.013582 -1.33482e-20)
1072	Ua	0	(0 0.0093083 0)	0.449339	(0.0749621 0.013582 -1.33482e-20)
1073	Ua	0	(0 0.0093083 0)	0.449417	(0.0749621 0.013582 -1.33482e-20)
1074	Ua	0	(0 0.0093083 0)	0.449491	(0.0749621 0.013582 -1.33482e-20)
1075	Ua	0	(0 0.0093083 0)	0.449562	(0.0749621 0.013582 -1.33482e-20)
1076	Ua	0	(0 0.0093083 0)	0.449629	(0.0749621 0.013582 -1.33482e-20)
1077	Ua	0	(0 0.0093083 0)	0.449693	(0.0749621 0.013582 -1.33482e-20)
1078	Ua	0	(0 0.0093083 0)	0.449753	(0.0749621 0.013582 -1.33482e-20)
1079	Ua	0	(0 0.0093083 0)	0.449811	(0.0749621 0.013582 -1.33482e-20)
1080	Ua	0	(0 0.0093083 0)	0.449866	(0.0749621 0.013582 -1.33482e-20)
1081	Ua	0	(0 0.0093083 0)	0.449918	(0.0749621 0.013582 -1.33482e-20)
1082	Ua	0	(0 0.0093083 0)	0.449967	(0.0749621 0.013582 -1.33482e-20)
1083	Ua	0	(0 0.0093083 0)	0.450014	(0.0749621 0.013582 -1.33482e-20)
1084	Ua	0	(0 0.0093083 0)	0.450059	(0.0749621 0.013582 -1.33482e-20)
1085	Ua	0	(0 0.0093083 0)	0.450102	(0.0749621 0.013582 -1.33482e-20)
1086	Ua	0	(0 0.0093083 0)	0.450143	(0.0749621 0.013582 -1.33482e-20)
1087	Ua	0	(0 0.0093083 0)	0.450182	(0.0749621 0.013582 -1.33482e-20)
1088	Ua	0	(0 0.0093083 0)	0.450219	(0.0749621 0.013582 -1.33482e-20)
1089	Ua	0	(0 0.0093083 0)	0.450254	(0.0749621 0.013582 -1.33482e-20)
1090	Ua	0	(0 0.0093083 0)	0.450287	(0.0749621 0.013582 -1.33482e-20)
1091	Ua	0	(0 0.0093083 0)	0.450319	(0.0749621 0.013582 -1.33482e-20)
1092	Ua	0	(0 0.0093083 0)	0.45035	(0.0749621 0.013582 -1.33482e-20)
1093	Ua	0	(0 0.0093083 0)	0.450379	(0.0749621 0.013582 -1.33482e-20)
1094	Ua	0	(0 0.0093083 0)	0.450407	(0.0749621 0.013582 -1.33482e-20)
1095	Ua	0	(0 0.0093083 0)	0.450433	(0.0749621 0.013582 -1.33482e-20)
1096	Ua	0	(0 0.0093083 0)	0.450458	(0.0749621 0.013582 -1.33482e-20)
1097	Ua	0	(0 0.0093083 0)	0.450482	(0.0749621 0.013582 -1.33482e-20)
1098	Ua	0	(0 0.0093083 0)	0.450505	(0.0749621 0.013582 -1.33482e-20)
1099	Ua	0	(0 0.0093083 0)	0.450527	(0.0749621 0.013582 -1.33482e-20)
1100	Ua	0	(0 0.0093083 0)	0.450548	(0.0749621 0.013582 -1.33482e-20)
1101	Ua	0	(0 0.0093083 0)	0.450568	(0.0749621 0.013582 -1.33482e-20)
1102	Ua	0	(0 0.0093083 0)	0.450587	(0.0749621 0.013582 -1.33482e-20)
1103	Ua	0	(0 0.0093083 0)	0.450605	(0.0749621 0.013582 -1.33482e-20)
1104	Ua	0	(0 0.0093083 0)	0.450623	(0.0749621 0.013582 -1.33482e-20)
1105	Ua	0	(0 0.0093083 0)	0.450639	(0.0749621 0.013582 -1.33482e-20)
1106	Ua	0	(0 0.0093083 0)	0.450655	(0.0749621 0.013582 -1.33482e-20)
1107	Ua	0	(0 0.0093083 0)	0.45067	(0.0749621 0.013582 -1.33482e-20)
1108	Ua	0	(0 0.0093083 0)	0.450684	(0.0749621 0.013582 -1.33482e-20)
1109	Ua	0	(0 0.0093083 0)	0.450698	(0.0749621 0.013582 -1.33482e-20)
1110	Ua	0	(0 0.0093083 0)	0.450711	(0.0749621 0.013582 -1.33482e-20)
1111	Ua	0	(0 0.0093083 0)	0.450723	(0.0749621 0.013582 -1.33482e-20)
1112	Ua	0	(0 0.0093083 0)	0.450735	(0.0749621 0.013582 -1.33482e-20)
1113	Ua	0	(0 0.0093083 0)	0.450747	(0.0749621 0.013582 -1.33482e-20)
1114	Ua	0	(0 0.0093083 0)	0.450758	(0.0749621 0.013582 -1.33482e-20)
1115	Ua	0	(0 0.0093083 0)	0.450768	(0.0749621 0.013582 -1.33482e-20)
1116	Ua	0	(0 0.0093083 0)	0.450778	(0.0749621 0.013582 -1.33482e-20)
1117	Ua	0	(0 0.0093083 0)	0.450787	(0.0749621 0.013582 -1.33482e-20)
1118	Ua	0	(0 0.0093083 0)	0.450796	(0.0749621 0.013582 -1.33482e-20)
1119	Ua	0	(0 0.0093083 0)	0.450805	(0.0749621 0.013582 -1.33482e-20)
1120	Ua	0	(0 0.0093083 0)	0.450813	(0.0749621 0.013582 -1.33482e-20)
1121	Ua	0	(0 0.0093083 0)	0.450821	(0.0749621 0.013582 -1.33482e-20)
1122	Ua	0	(0 0.0093083 0)	0.450828	(0.0749621 0.013582 -1.33482e-20)
1123	Ua	0	(0 0.0093083 0)	0.450836	(0.0749621 0.013582 -1.33482e-20)
1124	Ua	0	(0 0.0093083 0)	0.450842	(0.0749621 0.013582 -1.33482e-20)
1125	Ua	0	(0 0.0093083 0)	0.450849	(0.0749621 0.013582 -1.33482e-20)
1126	Ua	0	(0 0.0093083 0)	0.450855	(0.0749621 0.013582 -1.33482e-20)
1127	Ua	0	(0 0.0093083 0)	0.450861	(0.0749621 0.013582 -1.33482e-20)
1128	Ua	0	(0 0.0093083 0)	0.450867	(0.0749621 0.013582 -1.33482e-20)
1129	Ua	0	(0 0.0093083 0)	0.450872	(0.0749621 0.013582 -1.33482e-20)
1130	Ua	0	(0 0.0093083 0)	0.450878	(0.0749621 0.013582 -1.33482e-20)
1131	Ua	0	(0 0.0093083 0)	0.450883	(0.0749621 0.013582 -1.33482e-20)
1132	Ua	0	(0 0.0093083 0)	0.450887	(0.0749621 0.013582 -1.33482e-20)
1133	Ua	0	(0 0.0093083 0)	0.450892	(0.0749621 0.013582 -1.33482e-20)
1134	Ua	0	(0 0.0093083 0)	0.450896	(0.0749621 0.013582 -1.33482e-20)
1135	Ua	0	(0 0.0093083 0)	0.4509	(0.0749621 0.013582 -1.33482e-20)
1136	Ua	0	(0 0.0093083 0)	0.450904	(0.0749621 0.013582 -1.33482e-20)
1137	Ua	0	(0 0.0093083 0)	0.450908	(0.0749621 0.013582 -1.33482e-20)
1138	Ua	0	(0 0.0093083 0)	0.450912	(0.0749621 0.013582 -1.33482e-20)
1139	Ua	0	(0 0.0093083 0)	0.450915	(0.0749621 0.013582 -1.33482e-20)
1140	Ua	0	(0 0.0093083 0)	0.450918	(0.0749621 0.013582 -1.33482e-20)
1141	Ua	0	(0 0.0093083 0)	0.450922	(0.0749621 0.013582 -1.33482e-20)
1142	Ua	0	(0 0.0093083 0)	0.450925	(0.0749621 0.013582 -1.33482e-20)
1143	Ua	0	(0 0.0093083 0)	0.450927	(0.0749621 0.013582 -1.33482e-20)
1144	Ua	0	(0 0.0093083 0)	0.45093	(0.0749621 0.013582 -1.33482e-20)
1145	Ua	0	(0 0.0093083 0)	0.450933	(0.0749621 0.013582 -1.33482e-20)
1146	Ua	0	(0 0.0093083 0)	0.450935	(0.0749621 0.013582 -1.33482e-20)
1147	Ua	0	(0 0.0093083 0)	0.450938	(0.0749621 0.013582 -1.33482e-20)
1148	Ua	0	(0 0.0093083 0)	0.45094	(0.0749621 0.013582 -1.33482e-20)
1149	Ua	0	(0 0.0093083 0)	0.450942	(0.0749621 0.013582 -1.33482e-20)
1150	Ua	0	(0 0.0093083 0)	0.450944	(0.0749621 0.013582 -1.33482e-20)
1151	Ua	0	(0 0.0093083 0)	0.450946	(0.0749621 0.013582 -1.33482e-20)
1152	Ua	0	(0 0.0093083 0)	0.450948	(0.0749621 0.013582 -1.33482e-20)
1153	Ua	0	(0 0.0093083 0)	0.45095	(0.0749621 0.013582 -1.33482e-20)
1154	Ua	0	(0 0.0093083 0)	0.450952	(0.0749621 0.013582 -1.33482e-20)
1155	Ua	0	(0 0.0093083 0)	0.450953	(0.0749621 0.013582 -1.33482e-20)
1156	Ua	0	(0 0.0093083 0)	0.450955	(0.0749621 0.013582 -1.33482e-20)
1157	Ua	0	(0 0.0093083 0)	0.450957	(0.0749621 0.013582 -1.33482e-20)
1158	Ua	0	(0 0.0093083 0)	0.450958	(0.0749621 0.013582 -1.33482e-20)
1159	Ua	0	(0 0.0093083 0)	0.450959	(0.0749621 0.013582 -1.33482e-20)
1160	Ua	0	(0 0.0093083 0)	0.450961	(0.0749621 0.013582 -1.33482e-20)
1161	Ua	0	(0 0.0093083 0)	0.450962	(0.0749621 0.013582 -1.33482e-20)
1162	Ua	0	(0 0.0093083 0)	0.450963	(0.0749621 0.013582 -1.33482e-20)
1163	Ua	0	(0 0.0093083 0)	0.450964	(0.0749621 0.013582 -1.33482e-20)
1164	Ua	0	(0 0.0093083 0)	0.450966	(0.0749621 0.013582 -1.33482e-20)
1165	Ua	0	(0 0.0093083 0)	0.450967	(0.0749621 0.013582 -1.33482e-20)
1166	Ua	0	(0 0.0093083 0)	0.450968	(0.0749621 0.013582 -1.33482e-20)
1167	Ua	0	(0 0.0093083 0)	0.450969	(0.0749621 0.013582 -1.33482e-20)
1168	Ua	0	(0 0.0093083 0)	0.45097	(0.0749621 0.013582 -1.33482e-20)
1169	Ua	0	(0 0.0093083 0)	0.450971	(0.0749621 0.013582 -1.33482e-20)
1170	Ua	0	(0 0.0093083 0)	0.450971	(0.0749621 0.013582 -1.33482e-20)
1171	Ua	0	(0 0.0093083 0)	0.450972	(0.0749621 0.013582 -1.33482e-20)
1172	Ua	0	(0 0.0093083 0)	0.450973	(0.0749621 0.013582 -1.33482e-20)
1173	Ua	0	(0 0.0093083 0)	0.450974	(0.0749621 0.013582 -1.33482e-20)
1174	Ua	0	(0 0.0093083 0)	0.450974	(0.0749621 0.013582 -1.33482e-20)
1175	Ua	0	(0 0.0093083 0)	0.450975	(0.0749621 0.013582 -1.33482e-20)
1176	Ua	0	(0 0.0093083 0)	0.450976	(0.0749621 0.013582 -1.33482e-20)
1177	Ua	0	(0 0.0093083 0)	0.450976	(0.0749621 0.013582 -1.33482e-20)
1178	Ua	0	(0 0.0093083 0)	0.450977	(0.0749621 0.013582 -1.33482e-20)
1179	Ua	0	(0 0.0093083 0)	0.450978	(0.0749621 0.013582 -1.33482e-20)
1180	Ua	0	(0 0.0093083 0)	0.450978	(0.0749621 0.013582 -1.33482e-20)
1181	Ua	0	(0 0.0093083 0)	0.450979	(0.0749621 0.013582 -1.33482e-20)
1182	Ua	0	(0 0.0093083 0)	0.450979	(0.0749621 0.013582 -1.33482e-20)
1183	Ua	0	(0 0.0093083 0)	0.45098	(0.0749621 0.013582 -1.33482e-20)
1184	Ua	0	(0 0.0093083 0)	0.45098	(0.0749621 0.013582 -1.33482e-20)
1185	Ua	0	(0 0.0093083 0)	0.450981	(0.0749621 0.013582 -1.33482e-20)
1186	Ua	0	(0 0.0093083 0)	0.450981	(0.0749621 0.013582 -1.33482e-20)
1187	Ua	0	(0 0.0093083 0)	0.450981	(0.0749621 0.013582 -1.33482e-20)
1188	Ua	0	(0 0.0093083 0)	0.450982	(0.0749621 0.013582 -1.33482e-20)
1189	Ua	0	(0 0.0093083 0)	0.450982	(0.0749621 0.013582 -1.33482e-20)
1190	Ua	0	(0 0.0093083 0)	0.450982	(0.0749621 0.013582 -1.33482e-20)
1191	Ua	0	(0 0.0093083 0)	0.450983	(0.0749621 0.013582 -1.33482e-20)
1192	Ua	0	(0 0.0093083 0)	0.450983	(0.0749621 0.013582 -1.33482e-20)
1193	Ua	0	(0 0.0093083 0)	0.450983	(0.0749621 0.013582 -1.33482e-20)
1194	Ua	0	(0 0.0093083 0)	0.450984	(0.0749621 0.013582 -1.33482e-20)
1195	Ua	0	(0 0.0093083 0)	0.450984	(0.0749621 0.013582 -1.33482e-20)
1196	Ua	0	(0 0.0093083 0)	0.450984	(0.0749621 0.013582 -1.33482e-20)
1197	Ua	0	(0 0.0093083 0)	0.450985	(0.0749621 0.013582 -1.33482e-20)
1198	Ua	0	(0 0.0093083 0)	0.450985	(0.0749621 0.013582 -1.33482e-20)
1199	Ua	0	(0 0.0093083 0)	0.450985	(0.0749621 0.013582 -1.33482e-20)
1200	Ua	0	(0 0.0093083 0)	0.450985	(0.0749621 0.013582 -1.33482e-20)
1201	Ua	0	(0 0.0093083 0)	0.450985	(0.0749621 0.013582 -1.33482e-20)
1202	Ua	0	(0 0.0093083 0)	0.450986	(0.0749621 0.013582 -1.33482e-20)
1203	Ua	0	(0 0.0093083 0)	0.450986	(0.0749621 0.013582 -1.33482e-20)
1204	Ua	0	(0 0.0093083 0)	0.450986	(0.0749621 0.013582 -1.33482e-20)
1205	Ua	0	(0 0.0093083 0)	0.450986	(0.0749621 0.013582 -1.33482e-20)
1206	Ua	0	(0 0.0093083 0)	0.450986	(0.0749621 0.013582 -1.33482e-20)
1207	Ua	0	(0 0.0093083 0)	0.450987	(0.0749621 0.013582 -1.33482e-20)
1208	Ua	0	(0 0.0093083 0)	0.450987	(0.0749621 0.013582 -1.33482e-20)
1209	Ua	0	(0 0.0093083 0)	0.450987	(0.0749621 0.013582 -1.33482e-20)
1210	Ua	0	(0 0.0093083 0)	0.450987	(0.0749621 0.013582 -1.33482e-20)
1211	Ua	0	(0 0.0093083 0)	0.450987	(0.0749621 0.013582 -1.33482e-20)
1212	Ua	0	(0 0.0093083 0)	0.450987	(0.0749621 0.013582 -1.33482e-20)
1213	Ua	0	(0 0.0093083 0)	0.450987	(0.0749621 0.013582 -1.33482e-20)
1214	Ua	0	(0 0.0093083 0)	0.450988	(0.0749621 0.013582 -1.33482e-20)
1215	Ua	0	(0 0.0093083 0)	0.450988	(0.0749621 0.013582 -1.33482e-20)
1216	Ua	0	(0 0.0093083 0)	0.450988	(0.0749621 0.013582 -1.33482e-20)
1217	Ua	0	(0 0.0093083 0)	0.450988	(0.0749621 0.013582 -1.33482e-20)
1218	Ua	0	(0 0.0093083 0)	0.450988	(0.0749621 0.013582 -1.33482e-20)
1219	Ua	0	(0 0.0093083 0)	0.450988	(0.0749621 0.013582 -1.33482e-20)
1220	Ua	0	(0 0.0093083 0)	0.450988	(0.0749621 0.013582 -1.33482e-20)
1221	Ua	0	(0 0.0093083 0)	0.450988	(0.0749621 0.013582 -1.33482e-20)
1222	Ua	0	(0 0.0093083 0)	0.450988	(0.0749621 0.013582 -1.33482e-20)
1223	Ua	0	(0 0.0093083 0)	0.450988	(0.0749621 0.013582 -1.33482e-20)
1224	Ua	0	(0 0.0093083 0)	0.450989	(0.0749621 0.013582 -1.33482e-20)
1225	Ua	0	(0 0.0093083 0)	0.450989	(0.0749621 0.013582 -1.33482e-20)
1226	Ua	0	(0 0.0093083 0)	0.450989	(0.0749621 0.013582 -1.33482e-20)
1227	Ua	0	(0 0.0093083 0)	0.450989	(0.0749621 0.013582 -1.33482e-20)
1228	Ua	0	(0 0.0093083 0)	0.450989	(0.0749621 0.013582 -1.33482e-20)
1229	Ua	0	(0 0.0093083 0)	0.450989	(0.0749621 0.013582 -1.33482e-20)
1230	Ua	0	(0 0.0093083 0)	0.450989	(0.0749621 0.013582 -1.33482e-20)
1231	Ua	0	(0 0.0093083 0)	0.450989	(0.0749621 0.013582 -1.33482e-20)
1232	Ua	0	(0 0.0093083 0)	0.450989	(0.0749621 0.013582 -1.33482e-20)
1233	Ua	0	(0 0.0093083 0)	0.450989	(0.0749621 0.013582 -1.33482e-20)
1234	Ua	0	(0 0.0093083 0)	0.450989	(0.0749621 0.013582 -1.33482e-20)
1235	Ua	0	(0 0.0093083 0)	0.450989	(0.0749621 0.013582 -1.33482e-20)
1236	Ua	0	(0 0.0093083 0)	0.450989	(0.0749621 0.013582 -1.33482e-20)
1237	Ua	0	(0 0.0093083 0)	0.450989	(0.0749621 0.013582 -1.33482e-20)
1238	Ua	0	(0 0.0093083 0)	0.450989	(0.0749621 0.013582 -1.33482e-20)
1239	Ua	0	(0 0.0093083 0)	0.450989	(0.0749621 0.013582 -1.33482e-20)
1240	Ua	0	(0 0.0093083 0)	0.450989	(0.0749621 0.013582 -1.33482e-20)
1241	Ua	0	(0 0.0093083 0)	0.450989	(0.0749621 0.013582 -1.33482e-20)
1242	Ua	0	(0 0.0093083 0)	0.450989	(0.0749621 0.013582 -1.33482e-20)
1243	Ua	0	(0 0.0093083 0)	0.45099	(0.0749621 0.013582 -1.33482e-20)
1244	Ua	0	(0 0.0093083 0)	0.45099	(0.0749621 0.013582 -1.33482e-20)
1245	Ua	0	(0 0.0093083 0)	0.45099	(0.0749621 0.013582 -1.33482e-20)
1246	Ua	0	(0 0.0093083 0)	0.45099	(0.0749621 0.013582 -1.33482e-20)
1247	Ua	0	(0 0.0093083 0)	0.45099	(0.0749621 0.013582 -1.33482e-20)
1248	Ua	0	(0 0.0093083 0)	0.45099	(0.0749621 0.013582 -1.33482e-20)
1249	Ua	0	(0 0.0093083 0)	0.45099	(0.0749621 0.013582 -1.33482e-20)
1250	Ua	0	(0 0.0093083 0)	0.45099	(0.0749621 0.013582 -1.33482e-20)
1251	Ua	0	(0 0.0093083 0)	0.45099	(0.0749621 0.013582 -1.33482e-20)
1252	Ua	0	(0 0.0093083 0)	0.45099	(0.0749621 0.013582 -1.33482e-20)
1253	Ua	0	(0 0.0093083 0)	0.45099	(0.0749621 0.013582 -1.33482e-20)
1254	Ua	0	(0 0.0093083 0)	0.45099	(0.0749621 0.013582 -1.33482e-20)
1255	Ua	0	(0 0.0093083 0)	0.45099	(0.0749621 0.013582 -1.33482e-20)
1256	Ua	0	(0 0.0093083 0)	0.45099	(0.0749621 0.013582 -1.33482e-20)
1257	Ua	0	(0 0.0093083 0)	0.45099	(0.0749621 0.013582 -1.33482e-20)
1258	Ua	0	(0 0.0093083 0)	0.45099	(0.0749621 0.013582 -1.33482e-20)
1259	Ua	0	(0 0.0093083 0)	0.45099	(0.0749621 0.013582 -1.33482e-20)
1260	Ua	0	(0 0.0093083 0)	0.45099	(0.0749621 0.013582 -1.33482e-20)
1261	Ua	0	(0 0.0093083 0)	0.45099	(0.0749621 0.013582 -1.33482e-20)
1262	Ua	0	(0 0.0093083 0)	0.45099	(0.0749621 0.013582 -1.33482e-20)
1263	Ua	0	(0 0.0093083 0)	0.45099	(0.0749621 0.013582 -1.33482e-20)
1264	Ua	0	(0 0.0093083 0)	0.45099	(0.0749621 0.013582 -1.33482e-20)
1265	Ua	0	(0 0.0093083 0)	0.45099	(0.0749621 0.013582 -1.33482e-20)
1266	Ua	0	(0 0.0093083 0)	0.45099	(0.0749621 0.013582 -1.33482e-20)
1267	Ua	0	(0 0.0093083 0)	0.45099	(0.0749621 0.013582 -1.33482e-20)
1268	Ua	0	(0 0.0093083 0)	0.45099	(0.0749621 0.013582 -1.33482e-20)
1269	Ua	0	(0 0.0093083 0)	0.45099	(0.0749621 0.013582 -1.33482e-20)
1270	Ua	0	(0 0.0093083 0)	0.45099	(0.0749621 0.013582 -1.33482e-20)
1271	Ua	0	(0 0.0093083 0)	0.45099	(0.0749621 0.013582 -1.33482e-20)
1272	Ua	0	(0 0.0093083 0)	0.45099	(0.0749621 0.013582 -1.33482e-20)
1273	Ua	0	(0 0.0093083 0)	0.45099	(0.0749621 0.013582 -1.33482e-20)
1274	Ua	0	(0 0.0093083 0)	0.45099	(0.0749621 0.013582 -1.33482e-20)
1275	Ua	0	(0 0.0093083 0)	0.45099	(0.0749621 0.013582 -1.33482e-20)
1276	Ua	0	(0 0.0093083 0)	0.45099	(0.0749621 0.013582 -1.33482e-20)
1277	Ua	0	(0 0.0093083 0)	0.45099	(0.0749621 0.013582 -1.33482e-20)
1278	Ua	0	(0 0.0093083 0)	0.45099	(0.0749621 0.013582 -1.33482e-20)
1279	Ua	0	(0 0.0093083 0)	0.45099	(0.0749621 0.013582 -1.33482e-20)
1280	Ua	0	(0 0.0093083 0)	0.45099	(0.0749621 0.013582 -1.33482e-20)
1281	Ua	0	(0 0.0093083 0)	0.45099	(0.0749621 0.013582 -1.33482e-20)
1282	Ua	0	(0 0.0093083 0)	0.45099	(0.0749621 0.013582 -1.33482e-20)
1283	Ua	0	(0 0.0093083 0)	0.45099	(0.0749621 0.013582 -1.33482e-20)
1284	Ua	0	(0 0.0093083 0)	0.45099	(0.0749621 0.013582 -1.33482e-20)
1285	Ua	0	(0 0.0093083 0)	0.45099	(0.0749621 0.013582 -1.33482e-20)
1286	Ua	0	(0 0.0093083 0)	0.45099	(0.0749621 0.013582 -1.33482e-20)
1287	Ua	0	(0 0.0093083 0)	0.45099	(0.0749621 0.013582 -1.33482e-20)
1288	Ua	0	(0 0.0093083 0)	0.45099	(0.0749621 0.013582 -1.33482e-20)
1289	Ua	0	(0 0.0093083 0)	0.45099	(0.0749621 0.013582 -1.33482e-20)
1290	Ua	0	(0 0.0093083 0)	0.45099	(0.0749621 0.013582 -1.33482e-20)
1291	Ua	0	(0 0.0093083 0)	0.45099	(0.0749621 0.013582 -1.33482e-20)
1292	Ua	0	(0 0.0093083 0)	0.45099	(0.0749621 0.013582 -1.33482e-20)
1293	Ua	0	(0 0.0093083 0)	0.45099	(0.0749621 0.013582 -1.33482e-20)
1294	Ua	0	(0 0.0093083 0)	0.45099	(0.0749621 0.013582 -1.33482e-20)
1295	Ua	0	(0 0.0093083 0)	0.45099	(0.0749621 0.013582 -1.33482e-20)
1296	Ua	0	(0 0.0093083 0)	0.45099	(0.0749621 0.013582 -1.33482e-20)
1297	Ua	0	(0 0.0093083 0)	0.45099	(0.0749621 0.013582 -1.33482e-20)
1298	Ua	0	(0 0.0093083 0)	0.45099	(0.0749621 0.013582 -1.33482e-20)
1299	Ua	0	(0 0.0093083 0)	0.45099	(0.0749621 0.013582 -1.33482e-20)
1300	Ua	0	(0 0.0093083 0)	0.45099	(0.0749621 0.013582 -1.33482e-20)
1301	Ua	0	(0 0.0093083 0)	0.45099	(0.0749621 0.013582 -1.33482e-20)
1302	Ua	0	(0 0.0093083 0)	0.45099	(0.0749621 0.013582 -1.33482e-20)
1303	Ua	0	(0 0.0093083 0)	0.45099	(0.0749621 0.013582 -1.33482e-20)
1304	Ua	0	(0 0.0093083 0)	0.45099	(0.0749621 0.013582 -1.33482e-20)
1305	Ua	0	(0 0.0093083 0)	0.45099	(0.0749621 0.013582 -1.33482e-20)
1306	Ua	0	(0 0.0093083 0)	0.45099	(0.0749621 0.013582 -1.33482e-20)
1307	Ua	0	(0 0.0093083 0)	0.45099	(0.0749621 0.013582 -1.33482e-20)
1308	Ua	0	(0 0.0093083 0)	0.45099	(0.0749621 0.013582 -1.33482e-20)
1309	Ua	0	(0 0.0093083 0)	0.45099	(0.0749621 0.013582 -1.33482e-20)
1310	Ua	0	(0 0.0093083 0)	0.45099	(0.0749621 0.013582 -1.33482e-20)
1311	Ua	0	(0 0.0093083 0)	0.45099	(0.0749621 0.013582 -1.33482e-20)
1312	Ua	0	(0 0.0093083 0)	0.45099	(0.0749621 0.013582 -1.33482e-20)
1313	Ua	0	(0 0.0093083 0)	0.45099	(0.0749621 0.013582 -1.33482e-20)
1314	Ua	0	(0 0.0093083 0)	0.45099	(0.0749621 0.013582 -1.33482e-20)
1315	Ua	0	(0 0.0093083 0)	0.45099	(0.0749621 0.013582 -1.33482e-20)
1316	Ua	0	(0 0.0093083 0)	0.45099	(0.0749621 0.013582 -1.33482e-20)
1317	Ua	0	(0 0.0093083 0)	0.45099	(0.0749621 0.013582 -1.33482e-20)
1318	Ua	0	(0 0.0093083 0)	0.45099	(0.0749621 0.013582 -1.33482e-20)
1319	Ua	0	(0 0.0093083 0)	0.45099	(0.0749621 0.013582 -1.33482e-20)
1320	Ua	0	(0 0.0093083 0)	0.45099	(0.0749621 0.013582 -1.33482e-20)
1321	Ua	0	(0 0.0093083 0)	0.45099	(0.0749621 0.013582 -1.33482e-20)
1322	Ua	0	(0 0.0093083 0)	0.45099	(0.0749621 0.013582 -1.33482e-20)
1323	Ua	0	(0 0.0093083 0)	0.45099	(0.0749621 0.013582 -1.33482e-20)
1324	Ua	0	(0 0.0093083 0)	0.45099	(0.0749621 0.013582 -1.33482e-20)
1325	Ua	0	(0 0.0093083 0)	0.45099	(0.0749621 0.013582 -1.33482e-20)
1326	Ua	0	(0 0.0093083 0)	0.45099	(0.0749621 0.013582 -1.33482e-20)
1327	Ua	0	(0 0.0093083 0)	0.45099	(0.0749621 0.013582 -1.33482e-20)
1328	Ua	0	(0 0.0093083 0)	0.45099	(0.0749621 0.013582 -1.33482e-20)
1329	Ua	0	(0 0.0093083 0)	0.45099	(0.0749621 0.013582 -1.33482e-20)
1330	Ua	0	(0 0.0093083 0)	0.45099	(0.0749621 0.013582 -1.33482e-20)
1331	Ua	0	(0 0.0093083 0)	0.45099	(0.0749621 0.013582 -1.33482e-20)
1332	Ua	0	(0 0.0093083 0)	0.45099	(0.0749621 0.013582 -1.33482e-20)
1333	Ua	0	(0 0.0093083 0)	0.45099	(0.0749621 0.013582 -1.33482e-20)
1334	Ua	0	(0 0.0093083 0)	0.45099	(0.0749621 0.013582 -1.33482e-20)
1335	Ua	0	(0 0.0093083 0)	0.45099	(0.0749621 0.013582 -1.33482e-20)
1336	Ua	0	(0 0.0093083 0)	0.45099	(0.0749621 0.013582 -1.33482e-20)
1337	Ua	0	(0 0.0093083 0)	0.45099	(0.0749621 0.013582 -1.33482e-20)
1338	Ua	0	(0 0.0093083 0)	0.45099	(0.0749621 0.013582 -1.33482e-20)
1339	Ua	0	(0 0.0093083 0)	0.45099	(0.0749621 0.013582 -1.33482e-20)
1340	Ua	0	(0 0.0093083 0)	0.45099	(0.0749621 0.013582 -1.33482e-20)
1341	Ua	0	(0 0.0093083 0)	0.45099	(0.0749621 0.013582 -1.33482e-20)
1342	Ua	0	(0 0.0093083 0)	0.45099	(0.0749621 0.013582 -1.33482e-20)
1343	Ua	0	(0 0.0093083 0)	0.45099	(0.0749621 0.013582 -1.33482e-20)
1344	Ua	0	(0 0.0093083 0)	0.45099	(0.0749621 0.013582 -1.33482e-20)
1345	Ua	0	(0 0.0093083 0)	0.45099	(0.0749621 0.013582 -1.33482e-20)
1346	Ua	0	(0 0.0093083 0)	0.45099	(0.0749621 0.013582 -1.33482e-20)
1347	Ua	0	(0 0.0093083 0)	0.45099	(0.0749621 0.013582 -1.33482e-20)
1348	Ua	0	(0 0.0093083 0)	0.45099	(0.0749621 0.013582 -1.33482e-20)
1349	Ua	0	(0 0.0093083 0)	0.45099	(0.0749621 0.013582 -1.33482e-20)
1350	Ua	0	(0 0.0093083 0)	0.45099	(0.0749621 0.013582 -1.33482e-20)
1351	Ua	0	(0 0.0093083 0)	0.45099	(0.0749621 0.013582 -1.33482e-20)
1352	Ua	0	(0 0.0093083 0)	0.45099	(0.0749621 0.013582 -1.33482e-20)
1353	Ua	0	(0 0.0093083 0)	0.45099	(0.0749621 0.013582 -1.33482e-20)
1354	Ua	0	(0 0.0093083 0)	0.45099	(0.0749621 0.013582 -1.33482e-20)
1355	Ua	0	(0 0.0093083 0)	0.45099	(0.0749621 0.013582 -1.33482e-20)
1356	Ua	0	(0 0.0093083 0)	0.45099	(0.0749621 0.013582 -1.33482e-20)
1357	Ua	0	(0 0.0093083 0)	0.45099	(0.0749621 0.013582 -1.33482e-20)
1358	Ua	0	(0 0.0093083 0)	0.45099	(0.0749621 0.013582 -1.33482e-20)
1359	Ua	0	(0 0.0093083 0)	0.45099	(0.0749621 0.013582 -1.33482e-20)
1360	Ua	0	(0 0.0093083 0)	0.45099	(0.0749621 0.013582 -1.33482e-20)
1361	Ua	0	(0 0.0093083 0)	0.45099	(0.0749621 0.013582 -1.33482e-20)
1362	Ua	0	(0 0.0093083 0)	0.45099	(0.0749621 0.013582 -1.33482e-20)
1363	Ua	0	(0 0.0093083 0)	0.45099	(0.0749621 0.013582 -1.33482e-20)
1364	Ua	0	(0 0.0093083 0)	0.45099	(0.0749621 0.013582 -1.33482e-20)
1365	Ua	0	(0 0.0093083 0)	0.45099	(0.0749621 0.013582 -1.33482e-20)
1366	Ua	0	(0 0.0093083 0)	0.45099	(0.0749621 0.013582 -1.33482e-20)
1367	Ua	0	(0 0.0093083 0)	0.45099	(0.0749621 0.013582 -1.33482e-20)
1368	Ua	0	(0 0.0093083 0)	0.45099	(0.0749621 0.013582 -1.33482e-20)
1369	Ua	0	(0 0.0093083 0)	0.45099	(0.0749621 0.013582 -1.33482e-20)
1370	Ua	0	(0 0.0093083 0)	0.45099	(0.0749621 0.013582 -1.33482e-20)
1371	Ua	0	(0 0.0093083 0)	0.45099	(0.0749621 0.013582 -1.33482e-20)
1372	Ua	0	(0 0.0093083 0)	0.45099	(0.0749621 0.013582 -1.33482e-20)
1373	Ua	0	(0 0.0093083 0)	0.45099	(0.0749621 0.013582 -1.33482e-20)
1374	Ua	0	(0 0.0093083 0)	0.45099	(0.0749621 0.013582 -1.33482e-20)
1375	Ua	0	(0 0.0093083 0)	0.45099	(0.0749621 0.013582 -1.33482e-20)
1376	Ua	0	(0 0.0093083 0)	0.45099	(0.0749621 0.013582 -1.33482e-20)
1377	Ua	0	(0 0.0093083 0)	0.45099	(0.0749621 0.013582 -1.33482e-20)
1378	Ua	0	(0 0.0093083 0)	0.45099	(0.0749621 0.013582 -1.33482e-20)
1379	Ua	0	(0 0.0093083 0)	0.45099	(0.0749621 0.013582 -1.33482e-20)
1380	Ua	0	(0 0.0093083 0)	0.45099	(0.0749621 0.013582 -1.33482e-20)
1381	Ua	0	(0 0.0093083 0)	0.45099	(0.0749621 0.013582 -1.33482e-20)
1382	Ua	0	(0 0.0093083 0)	0.45099	(0.0749621 0.013582 -1.33482e-20)
1383	Ua	0	(0 0.0093083 0)	0.45099	(0.0749621 0.013582 -1.33482e-20)
1384	Ua	0	(0 0.0093083 0)	0.45099	(0.0749621 0.013582 -1.33482e-20)
1385	Ua	0	(0 0.0093083 0)	0.45099	(0.0749621 0.013582 -1.33482e-20)
1386	Ua	0	(0 0.0093083 0)	0.45099	(0.0749621 0.013582 -1.33482e-20)
1387	Ua	0	(0 0.0093083 0)	0.45099	(0.0749621 0.013582 -1.33482e-20)
1388	Ua	0	(0 0.0093083 0)	0.45099	(0.0749621 0.013582 -1.33482e-20)
1389	Ua	0	(0 0.0093083 0)	0.45099	(0.0749621 0.013582 -1.33482e-20)
1390	Ua	0	(0 0.0093083 0)	0.45099	(0.0749621 0.013582 -1.33482e-20)
1391	Ua	0	(0 0.0093083 0)	0.45099	(0.0749621 0.013582 -1.33482e-20)
1392	Ua	0	(0 0.0093083 0)	0.45099	(0.0749621 0.013582 -1.33482e-20)
1393	Ua	0	(0 0.0093083 0)	0.45099	(0.0749621 0.013582 -1.33482e-20)
1394	Ua	0	(0 0.0093083 0)	0.45099	(0.0749621 0.013582 -1.33482e-20)
1395	Ua	0	(0 0.0093083 0)	0.45099	(0.0749621 0.013582 -1.33482e-20)
1396	Ua	0	(0 0.0093083 0)	0.45099	(0.0749621 0.013582 -1.33482e-20)
1397	Ua	0	(0 0.0093083 0)	0.45099	(0.0749621 0.013582 -1.33482e-20)
1398	Ua	0	(0 0.0093083 0)	0.45099	(0.0749621 0.013582 -1.33482e-20)
1399	Ua	0	(0 0.0093083 0)	0.45099	(0.0749621 0.013582 -1.33482e-20)
1400	Ua	0	(0 0.0093083 0)	0.45099	(0.0749621 0.013582 -1.33482e-20)
1401	Ua	0	(0 0.0093083 0)	0.45099	(0.0749621 0.013582 -1.33482e-20)
1402	Ua	0	(0 0.0093083 0)	0.45099	(0.0749621 0.013582 -1.33482e-20)
1403	Ua	0	(0 0.0093083 0)	0.45099	(0.0749621 0.013582 -1.33482e-20)
1404	Ua	0	(0 0.0093083 0)	0.45099	(0.0749621 0.013582 -1.33482e-20)
1405	Ua	0	(0 0.0093083 0)	0.45099	(0.0749621 0.013582 -1.33482e-20)
1406	Ua	0	(0 0.0093083 0)	0.45099	(0.0749621 0.013582 -1.33482e-20)
1407	Ua	0	(0 0.0093083 0)	0.45099	(0.0749621 0.013582 -1.33482e-20)
1408	Ua	0	(0 0.0093083 0)	0.45099	(0.0749621 0.013582 -1.33482e-20)
1409	Ua	0	(0 0.0093083 0)	0.45099	(0.0749621 0.013582 -1.33482e-20)
1410	Ua	0	(0 0.0093083 0)	0.45099	(0.0749621 0.013582 -1.33482e-20)
1411	Ua	0	(0 0.0093083 0)	0.45099	(0.0749621 0.013582 -1.33482e-20)
1412	Ua	0	(0 0.0093083 0)	0.45099	(0.0749621 0.013582 -1.33482e-20)
1413	Ua	0	(0 0.0093083 0)	0.45099	(0.0749621 0.013582 -1.33482e-20)
1414	Ua	0	(0 0.0093083 0)	0.45099	(0.0749621 0.013582 -1.33482e-20)
1415	Ua	0	(0 0.0093083 0)	0.45099	(0.0749621 0.013582 -1.33482e-20)
1416	Ua	0	(0 0.0093083 0)	0.45099	(0.0749621 0.013582 -1.33482e-20)
1417	Ua	0	(0 0.0093083 0)	0.45099	(0.0749621 0.013582 -1.33482e-20)
1418	Ua	0	(0 0.0093083 0)	0.45099	(0.0749621 0.013582 -1.33482e-20)
1419	Ua	0	(0 0.0093083 0)	0.45099	(0.0749621 0.013582 -1.33482e-20)
1420	Ua	0	(0 0.0093083 0)	0.45099	(0.0749621 0.013582 -1.33482e-20)
1421	Ua	0	(0 0.0093083 0)	0.45099	(0.0749621 0.013582 -1.33482e-20)
1422	Ua	0	(0 0.0093083 0)	0.45099	(0.0749621 0.013582 -1.33482e-20)
1423	Ua	0	(0 0.0093083 0)	0.45099	(0.0749621 0.013582 -1.33482e-20)
1424	Ua	0	(0 0.0093083 0)	0.45099	(0.0749621 0.013582 -1.33482e-20)
1425	Ua	0	(0 0.0093083 0)	0.45099	(0.0749621 0.013582 -1.33482e-20)
1426	Ua	0	(0 0.0093083 0)	0.45099	(0.0749621 0.013582 -1.33482e-20)
1427	Ua	0	(0 0.0093083 0)	0.45099	(0.0749621 0.013582 -1.33482e-20)
1428	Ua	0	(0 0.0093083 0)	0.45099	(0.0749621 0.013582 -1.33482e-20)
1429	Ua	0	(0 0.0093083 0)	0.45099	(0.0749621 0.013582 -1.33482e-20)
1430	Ua	0	(0 0.0093083 0)	0.45099	(0.0749621 0.013582 -1.33482e-20)
1431	Ua	0	(0 0.0093083 0)	0.45099	(0.0749621 0.013582 -1.33482e-20)
1432	Ua	0	(0 0.0093083 0)	0.45099	(0.0749621 0.013582 -1.33482e-20)
1433	Ua	0	(0 0.0093083 0)	0.45099	(0.0749621 0.013582 -1.33482e-20)
1434	Ua	0	(0 0.0093083 0)	0.45099	(0.0749621 0.013582 -1.33482e-20)
1435	Ua	0	(0 0.0093083 0)	0.45099	(0.0749621 0.013582 -1.33482e-20)
1436	Ua	0	(0 0.0093083 0)	0.45099	(0.0749621 0.013582 -1.33482e-20)
1437	Ua	0	(0 0.0093083 0)	0.45099	(0.0749621 0.013582 -1.33482e-20)
1438	Ua	0	(0 0.0093083 0)	0.45099	(0.0749621 0.013582 -1.33482e-20)