# Time	field	min	position(min)	max	position(max)
